Title: * simulation of motor
Date: Sun Aug  9 22:52:46  2009
Plotname: Transient Analysis
Flags: real
No. Variables: 10
No. Points: 3122
Variables:
	0	time	time
	1	v(1)	voltage
	2	v(2)	voltage
	3	v(3)	voltage
	4	in	voltage
	5	out	voltage
	6	v2#branch	current
	7	v_motor#branch	current
	8	vbase	voltage
	9	vbasebc	voltage
Values:
 0	0.000000000000000e+00
	1.200000000000000e+01
	6.540559079975132e+00
	1.188896307040144e-01
	0.000000000000000e+00
	6.461698398921115e-01
	1.084451410195488e-12
	-1.189977425211038e-01
	1.081118159950266e+00
	1.084451410195488e-08

 1	1.000000000000000e-10
	1.200000000000000e+01
	6.540559079976791e+00
	1.188896307038536e-01
	0.000000000000000e+00
	6.461698398969475e-01
	1.084518212861560e-12
	-1.189977425210537e-01
	1.081118159953581e+00
	1.084518212861560e-08

 2	2.000000000000000e-10
	1.200000000000000e+01
	6.540559079978606e+00
	1.188896307037643e-01
	0.000000000000000e+00
	6.461698399010930e-01
	1.084588748620592e-12
	-1.189977425210105e-01
	1.081118159957212e+00
	1.084588748620592e-08

 3	4.000000000000000e-10
	1.200000000000000e+01
	6.540559079981975e+00
	1.188896307036180e-01
	0.000000000000000e+00
	6.461698399080604e-01
	1.084717917923446e-12
	-1.189977425209374e-01
	1.081118159963950e+00
	1.084717917923446e-08

 4	8.000000000000000e-10
	1.200000000000000e+01
	6.540559079986482e+00
	1.188896307036793e-01
	0.000000000000000e+00
	6.461698399167281e-01
	1.084888651252504e-12
	-1.189977425208462e-01
	1.081118159972964e+00
	1.084888651252504e-08

 5	1.600000000000000e-09
	1.200000000000000e+01
	6.540559079989471e+00
	1.188896307036632e-01
	0.000000000000000e+00
	6.461698399230660e-01
	1.085000951520368e-12
	-1.189977425207799e-01
	1.081118159978942e+00
	1.085000951520368e-08

 6	3.200000000000000e-09
	1.200000000000000e+01
	6.540559079989915e+00
	1.188896307036779e-01
	0.000000000000000e+00
	6.461698399256234e-01
	1.085014960980251e-12
	-1.189977425207539e-01
	1.081118159979830e+00
	1.085014960980251e-08

 7	6.400000000000000e-09
	1.200000000000000e+01
	6.540559079989568e+00
	1.188896307036314e-01
	0.000000000000000e+00
	6.461698399284077e-01
	1.084995951362183e-12
	-1.189977425207264e-01
	1.081118159979136e+00
	1.084995951362183e-08

 8	1.000000000000000e-08
	1.200000000000000e+01
	6.540559079989421e+00
	1.188896307036039e-01
	0.000000000000000e+00
	6.461698399319713e-01
	1.084984068215285e-12
	-1.189977425206909e-01
	1.081118159978843e+00
	1.084984068215285e-08

 9	1.000848032356238e-08
	1.200000000000000e+01
	6.540559270966811e+00
	1.188896620151264e-01
	4.240161781188555e-03
	6.461699008574543e-01
	-4.235391373348532e-07
	-1.189977417204587e-01
	1.081118541933622e+00
	4.770407840023405e-06

 10	1.002544097068713e-08
	1.200000000000000e+01
	6.540559711543688e+00
	1.188897342256251e-01
	1.272048534356649e-02
	6.461700416120713e-01
	-1.270594376396145e-06
	-1.189977398723356e-01
	1.081119423087375e+00
	1.454157960504536e-05

 11	1.005936226493664e-08
	1.200000000000000e+01
	6.540560880718733e+00
	1.188899256947170e-01
	2.968113246832154e-02
	6.461704165164237e-01
	-2.964555832022541e-06
	-1.189977349541170e-01
	1.081121761437466e+00
	3.557414809613125e-05

 12	1.012720485343567e-08
	1.200000000000000e+01
	6.540563930117766e+00
	1.188904243237369e-01
	6.360242671783246e-02
	6.461714009683119e-01
	-6.351897984048586e-06
	-1.189977220601991e-01
	1.081127860235533e+00
	8.344687734660407e-05

 13	1.026289003043371e-08
	1.200000000000000e+01
	6.540571212115056e+00
	1.188916116379439e-01
	1.314450152168535e-01
	6.461737816482066e-01
	-1.312431734569778e-05
	-1.189976909714029e-01
	1.081142424230113e+00
	2.018417598756762e-04

 14	1.053426038442979e-08
	1.200000000000000e+01
	6.540586774577673e+00
	1.188941365725675e-01
	2.671301922148964e-01
	6.461789764324839e-01
	-2.666023095518507e-05
	-1.189976234610975e-01
	1.081173549155346e+00
	5.278826630456323e-04

 15	1.107700109242196e-08
	1.200000000000000e+01
	6.540618138271570e+00
	1.188991938447312e-01
	5.385005462109821e-01
	6.461896994563338e-01
	-5.369653590255277e-05
	-1.189974848671651e-01
	1.081236276543139e+00
	1.535187185454456e-03

 16	1.216248250840631e-08
	1.200000000000000e+01
	6.540680907940263e+00
	1.189092703856287e-01
	1.081241254203153e+00
	6.462114315924697e-01
	-1.076275431890472e-04
	-1.189972047761350e-01
	1.081361815880528e+00
	4.965822312680724e-03

 17	1.433344534037499e-08
	1.200000000000000e+01
	6.540805653488001e+00
	1.189292691248929e-01
	2.166722670187494e+00
	6.462543038406007e-01
	-2.149279316522025e-04
	-1.189966513081060e-01
	1.081611306976003e+00
	1.744335366546921e-02

 18	1.867537100431235e-08
	1.200000000000000e+01
	6.541048857643720e+00
	1.189682575689964e-01
	4.337685502156177e+00
	6.463356591658338e-01
	-4.273480382721515e-04
	-1.189955945506979e-01
	1.082097715287439e+00
	6.420511943466188e-02

 19	2.000000000000000e-08
	1.200000000000000e+01
	6.541118747013446e+00
	1.189794572726482e-01
	5.000000000000000e+00
	6.463584378544405e-01
	-4.915957858226778e-04
	-1.189952968744422e-01
	1.082237494026891e+00
	8.404214177322179e-02

 20	2.047890396364891e-08
	1.200000000000000e+01
	6.541120643947007e+00
	1.189797175439695e-01
	5.000000000000000e+00
	6.463587760460535e-01
	-4.908625351959903e-04
	-1.189952915955925e-01
	1.082241287894014e+00
	9.137464804009723e-02

 21	2.143671189094674e-08
	1.200000000000000e+01
	6.541117447380356e+00
	1.189791468132063e-01
	5.000000000000000e+00
	6.463567235859157e-01
	-4.894055056667914e-04
	-1.189953153167605e-01
	1.082234894760712e+00
	1.059449433320861e-01

 22	2.335232774554238e-08
	1.200000000000000e+01
	6.541110101552356e+00
	1.189779651051490e-01
	5.000000000000000e+00
	6.463512888039536e-01
	-4.865326416884364e-04
	-1.189953770104081e-01
	1.082220203104711e+00
	1.346735831156361e-01

 23	2.718355945473368e-08
	1.200000000000000e+01
	6.541095415365291e+00
	1.189756094746041e-01
	5.000000000000000e+00
	6.463405338553997e-01
	-4.809503271256613e-04
	-1.189954992460807e-01
	1.082190830730583e+00
	1.904967287433872e-01

 24	3.484602287311626e-08
	1.200000000000000e+01
	6.541065207542363e+00
	1.189707612237683e-01
	5.000000000000000e+00
	6.463194594832365e-01
	-4.704313550397233e-04
	-1.189957401976253e-01
	1.082130415084727e+00
	2.956864496027667e-01

 25	4.484602287311626e-08
	1.200000000000000e+01
	6.541022899184171e+00
	1.189639730869128e-01
	5.000000000000000e+00
	6.462923435805451e-01
	-4.579855855284769e-04
	-1.189960536650104e-01
	1.082045798368343e+00
	4.201441447152307e-01

 26	5.484602287311626e-08
	1.200000000000000e+01
	6.540954084935116e+00
	1.189529271890290e-01
	5.000000000000000e+00
	6.462579134546632e-01
	-4.468629501036502e-04
	-1.189964667805183e-01
	1.081908169870232e+00
	5.313704989634981e-01

 27	6.484602287311625e-08
	1.200000000000000e+01
	6.539144547782930e+00
	1.186622334410740e-01
	5.000000000000000e+00
	6.456411787464839e-01
	-4.370887259990145e-04
	-1.190044436647522e-01
	1.078289095565859e+00
	6.291127400098556e-01

 28	7.484602287311625e-08
	1.200000000000000e+01
	6.522042794050723e+00
	1.159163398595338e-01
	5.000000000000000e+00
	6.399260563483889e-01
	-4.307349745586447e-04
	-1.190786966424654e-01
	1.044085588101445e+00
	6.926502544135534e-01

 29	8.484602287311625e-08
	1.200000000000000e+01
	6.489689759456056e+00
	1.107321802719203e-01
	5.000000000000000e+00
	6.294570021373509e-01
	-4.275857502589065e-04
	-1.192157402191704e-01
	9.793795189121114e-01
	7.241424974109349e-01

 30	9.484602287311624e-08
	1.200000000000000e+01
	6.454475255922607e+00
	1.050982240481960e-01
	5.000000000000000e+00
	6.189354369239909e-01
	-4.256104428672053e-04
	-1.193561703748375e-01
	9.089505118452145e-01
	7.438955713279473e-01

 31	1.048460228731162e-07
	1.200000000000000e+01
	6.420344745498768e+00
	9.964344287386312e-02
	5.000000000000000e+00
	6.100802508127871e-01
	-4.241576315612732e-04
	-1.194788527463734e-01
	8.406894909975358e-01
	7.584236843872687e-01

 32	1.148460228731162e-07
	1.200000000000000e+01
	6.389055583458514e+00
	9.464575378167246e-02
	5.000000000000000e+00
	6.039728946621749e-01
	-4.230041292704158e-04
	-1.195712154699197e-01
	7.781111669170289e-01
	7.699587072958418e-01

 33	1.248460228731162e-07
	1.200000000000000e+01
	6.359692812438711e+00
	8.994861939500658e-02
	5.000000000000000e+00
	6.014550471650689e-01
	-4.220441725391501e-04
	-1.196257567159106e-01
	7.193856248774216e-01
	7.795582746084987e-01

 34	1.348460228731163e-07
	1.200000000000000e+01
	6.333495769801755e+00
	8.571498600831903e-02
	5.000000000000000e+00
	6.073981012126688e-01
	-4.212520910100138e-04
	-1.195925232180716e-01
	6.669915396035090e-01
	7.874790898998625e-01

 35	1.448460228731163e-07
	1.200000000000000e+01
	6.306134142801890e+00
	7.769591727544194e-02
	5.000000000000000e+00
	1.061502140036832e+00
	-4.206162333287767e-04
	-1.150788444568298e-01
	6.122682856037782e-01
	7.938376667122330e-01

 36	1.477075209053134e-07
	1.200000000000000e+01
	6.188937242003462e+00
	-2.070527894745518e-02
	5.000000000000000e+00
	1.146530707065896e+01
	-4.214806153449525e-04
	-1.115799205140692e-02
	3.778744840069228e-01
	7.851938465504755e-01

 37	1.489567638585367e-07
	1.200000000000000e+01
	6.095226838116532e+00
	-2.341395560309137e-03
	5.000000000000000e+00
	1.184076472291018e+01
	-4.252327298349096e-04
	-7.497125932781709e-03
	1.904536762330636e-01
	7.476727016509038e-01

 38	1.492200096747127e-07
	1.200000000000000e+01
	6.087141345947322e+00
	-2.450120029633899e-03
	5.000000000000000e+00
	1.191659486906554e+01
	-4.259445809644321e-04
	-6.746909963397323e-03
	1.742826918946453e-01
	7.405541903556785e-01

 39	1.494384816143916e-07
	1.200000000000000e+01
	6.082061791367300e+00
	-2.062416258072838e-03
	5.000000000000000e+00
	1.194612837457006e+01
	-4.264269938168082e-04
	-6.456654462932066e-03
	1.641235827345994e-01
	7.357300618319185e-01

 40	1.497201536837348e-07
	1.200000000000000e+01
	6.077050119814962e+00
	-1.533670847551979e-03
	5.000000000000000e+00
	1.196688706129617e+01
	-4.269309332038409e-04
	-6.254079267223309e-03
	1.541002396299247e-01
	7.306906679615908e-01

 41	1.501845281887294e-07
	1.200000000000000e+01
	6.071400623428017e+00
	-8.892928974911382e-04
	5.000000000000000e+00
	1.198347898740598e+01
	-4.275309066609716e-04
	-6.093809502512160e-03
	1.428012468560347e-01
	7.246909333902840e-01

 42	1.507799055315579e-07
	1.200000000000000e+01
	6.067247065853278e+00
	-4.370220458702123e-04
	5.000000000000000e+00
	1.199232137503458e+01
	-4.279914152741428e-04
	-6.009539183800892e-03
	1.344941317065560e-01
	7.200858472585723e-01

 43	1.514150092763875e-07
	1.200000000000000e+01
	6.064898286683271e+00
	-2.172090374797087e-04
	5.000000000000000e+00
	1.199632920879075e+01
	-4.282565788496782e-04
	-5.971809625409203e-03
	1.297965733665429e-01
	7.174342115032184e-01

 44	1.521017042081879e-07
	1.200000000000000e+01
	6.063551473856600e+00
	-1.082269551132908e-04
	5.000000000000000e+00
	1.199822788950511e+01
	-4.284024495957138e-04
	-5.954169631092273e-03
	1.271029477131985e-01
	7.159755040428616e-01

 45	1.529802479212610e-07
	1.200000000000000e+01
	6.062681426974524e+00
	-4.771686358837451e-05
	5.000000000000000e+00
	1.199925576539888e+01
	-4.284774868395937e-04
	-5.944760919036661e-03
	1.253628539490468e-01
	7.152251316040628e-01

 46	1.541811622644759e-07
	1.200000000000000e+01
	6.062044717559861e+00
	-2.352420493591175e-05
	5.000000000000000e+00
	1.199969081146606e+01
	-4.285110811373805e-04
	-5.941047167779562e-03
	1.240894351197211e-01
	7.148891886261950e-01

 47	1.558079205908405e-07
	1.200000000000000e+01
	6.061486279263256e+00
	-1.618823324861147e-05
	5.000000000000000e+00
	1.199980016567903e+01
	-4.285187057321020e-04
	-5.940512063946483e-03
	1.229725585265116e-01
	7.148129426789800e-01

 48	1.582452531459327e-07
	1.200000000000000e+01
	6.060787768682854e+00
	-1.467060990542195e-05
	5.000000000000000e+00
	1.199982689098814e+01
	-4.285167670193937e-04
	-5.940943321435708e-03
	1.215755373657072e-01
	7.148323298060626e-01

 49	1.625325755975151e-07
	1.200000000000000e+01
	6.059671561778662e+00
	-1.315790555295591e-05
	5.000000000000000e+00
	1.199984050676738e+01
	-4.285112522786758e-04
	-5.941923370547534e-03
	1.193431235573233e-01
	7.148874772132423e-01

 50	1.711072205006797e-07
	1.200000000000000e+01
	6.057736512385578e+00
	-1.090187978476339e-05
	5.000000000000000e+00
	1.199987092176722e+01
	-4.285003212075356e-04
	-5.943554269942275e-03
	1.154730247711560e-01
	7.149967879246446e-01

 51	1.811072205006797e-07
	1.200000000000000e+01
	6.055858043719348e+00
	-9.058522867800742e-06
	5.000000000000000e+00
	1.199988986852598e+01
	-4.284876592787125e-04
	-5.945243271020824e-03
	1.117160874386957e-01
	7.151234072128755e-01

 52	1.911072205006797e-07
	1.200000000000000e+01
	6.054280140331115e+00
	-7.669751632440846e-06
	5.000000000000000e+00
	1.199990908037163e+01
	-4.284754044322476e-04
	-5.946629055952589e-03
	1.085602806622301e-01
	7.152459556775244e-01

 53	2.011072205006797e-07
	1.200000000000000e+01
	6.052930937084872e+00
	-6.601298166303850e-06
	5.000000000000000e+00
	1.199991952282764e+01
	-4.284635238555580e-04
	-5.947873834638722e-03
	1.058618741697440e-01
	7.153647614444203e-01

 54	2.111072205006797e-07
	1.200000000000000e+01
	6.051758242585116e+00
	-5.781050906660964e-06
	5.000000000000000e+00
	1.199993138311358e+01
	-4.284520946714995e-04
	-5.948927926279069e-03
	1.035164851702313e-01
	7.154790532850052e-01

 55	2.211072205006797e-07
	1.200000000000000e+01
	6.050725999187833e+00
	-5.101040628343210e-06
	5.000000000000000e+00
	1.199993770634006e+01
	-4.284410637412246e-04
	-5.949896937411523e-03
	1.014519983756648e-01
	7.155893625877537e-01

 56	2.311072205006797e-07
	1.200000000000000e+01
	6.049807794667784e+00
	-4.565982309919645e-06
	5.000000000000000e+00
	1.199994572502389e+01
	-4.284304473175359e-04
	-5.950734955093283e-03
	9.961558933556686e-02
	7.156955268246410e-01

 57	2.411072205006797e-07
	1.200000000000000e+01
	6.048984195402404e+00
	-4.095155578099072e-06
	5.000000000000000e+00
	1.199994993900076e+01
	-4.284202140679262e-04
	-5.951516414589975e-03
	9.796839080480868e-02
	7.157978593207379e-01

 58	2.511072205006797e-07
	1.200000000000000e+01
	6.048240176914168e+00
	-3.720671937172502e-06
	5.000000000000000e+00
	1.199995570295639e+01
	-4.284103605361654e-04
	-5.952202793521955e-03
	9.648035382833517e-02
	7.158963946383464e-01

 59	2.611072205006798e-07
	1.200000000000000e+01
	6.047564033788720e+00
	-3.376104882342417e-06
	5.000000000000000e+00
	1.199995870642803e+01
	-4.284008667034196e-04
	-5.952848901931000e-03
	9.512806757743890e-02
	7.159913329658034e-01

 60	2.711072205006798e-07
	1.200000000000000e+01
	6.046946402289907e+00
	-3.100644917490873e-06
	5.000000000000000e+00
	1.199996302486652e+01
	-4.283917216944733e-04
	-5.953423349044944e-03
	9.389280457981476e-02
	7.160827830552675e-01

 61	2.811072205006798e-07
	1.200000000000000e+01
	6.046379675464473e+00
	-2.838437089248354e-06
	5.000000000000000e+00
	1.199996527518404e+01
	-4.283829108508595e-04
	-5.953967572695127e-03
	9.275935092894624e-02
	7.161708914914052e-01

 62	2.911072205006798e-07
	1.200000000000000e+01
	6.045857628822018e+00
	-2.628112503849873e-06
	5.000000000000000e+00
	1.199996860923459e+01
	-4.283744211935985e-04
	-5.954456278832078e-03
	9.171525764403678e-02
	7.162557880640155e-01

 63	3.011072205006798e-07
	1.200000000000000e+01
	6.045375041853243e+00
	-2.422679892903255e-06
	5.000000000000000e+00
	1.199997036172543e+01
	-4.283662406348414e-04
	-5.954921340892432e-03
	9.075008370648524e-02
	7.163375936515857e-01

 64	3.111072205006798e-07
	1.200000000000000e+01
	6.044927571325105e+00
	-2.257344637672228e-06
	5.000000000000000e+00
	1.199997299540794e+01
	-4.283583563209354e-04
	-5.955342474595493e-03
	8.985514265021026e-02
	7.164164367906458e-01

 65	3.211072205006798e-07
	1.200000000000000e+01
	6.044511483127846e+00
	-2.092710283874176e-06
	5.000000000000000e+00
	1.199997440253235e+01
	-4.283507574843698e-04
	-5.955744491548706e-03
	8.902296625569234e-02
	7.164924251563023e-01

 66	3.311072205006798e-07
	1.200000000000000e+01
	6.044123629366353e+00
	-1.959673800456834e-06
	5.000000000000000e+00
	1.199997652113500e+01
	-4.283434322311076e-04
	-5.956111159283613e-03
	8.824725873270496e-02
	7.165656776889242e-01

 67	3.411072205006798e-07
	1.200000000000000e+01
	6.043761250499160e+00
	-1.825322323701878e-06
	5.000000000000000e+00
	1.199997767882548e+01
	-4.283363705894944e-04
	-5.956461961246091e-03
	8.752250099832067e-02
	7.166362941050557e-01

 68	3.511072205006799e-07
	1.200000000000000e+01
	6.043421994092620e+00
	-1.716215369941057e-06
	5.000000000000000e+00
	1.199997940868544e+01
	-4.283295618466054e-04
	-5.956783919052975e-03
	8.684398818524060e-02
	7.167043815339459e-01

 69	3.611072205006799e-07
	1.200000000000000e+01
	6.043103766071803e+00
	-1.604933862011320e-06
	5.000000000000000e+00
	1.199998037995794e+01
	-4.283229966291221e-04
	-5.957092434348751e-03
	8.620753214360631e-02
	7.167700337087786e-01

 70	3.711072205006799e-07
	1.200000000000000e+01
	6.042804763655008e+00
	-1.514026365587001e-06
	5.000000000000000e+00
	1.199998181026415e+01
	-4.283166653738158e-04
	-5.957377133703540e-03
	8.560952731001624e-02
	7.168333462618427e-01

 71	3.811072205006799e-07
	1.200000000000000e+01
	6.042523362432004e+00
	-1.420699076033629e-06
	5.000000000000000e+00
	1.199998263806120e+01
	-4.283105592447232e-04
	-5.957650256956003e-03
	8.504672486400879e-02
	7.168944075527680e-01

 72	3.911072205006799e-07
	1.200000000000000e+01
	6.042258151475966e+00
	-1.343943156155463e-06
	5.000000000000000e+00
	1.199998383355647e+01
	-4.283046697069803e-04
	-5.957903512959334e-03
	8.451630295193206e-02
	7.169533029301973e-01

 73	4.011072205006799e-07
	1.200000000000000e+01
	6.042007847083662e+00
	-1.264840294854297e-06
	5.000000000000000e+00
	1.199998454810285e+01
	-4.282989884500533e-04
	-5.958146671887827e-03
	8.401569416732384e-02
	7.170101154994668e-01

 74	4.111072205006799e-07
	1.200000000000000e+01
	6.041771325147635e+00
	-1.199299272381439e-06
	5.000000000000000e+00
	1.199998555686438e+01
	-4.282935078272231e-04
	-5.958373106208524e-03
	8.354265029526906e-02
	7.170649217277693e-01

 75	4.211072205006799e-07
	1.200000000000000e+01
	6.041547554938273e+00
	-1.131637881920777e-06
	5.000000000000000e+00
	1.199998618005836e+01
	-4.282882200527289e-04
	-5.958590644478157e-03
	8.309510987654610e-02
	7.171177994727105e-01

 76	4.311072205006799e-07
	1.200000000000000e+01
	6.041335627066997e+00
	-1.075131729472801e-06
	5.000000000000000e+00
	1.199998703846608e+01
	-4.282831182373303e-04
	-5.958793988272180e-03
	8.267125413399294e-02
	7.171688176266972e-01

 77	4.411072205006799e-07
	1.200000000000000e+01
	6.041134702427227e+00
	-1.016794068565417e-06
	5.000000000000000e+00
	1.199998758659417e+01
	-4.282781951161596e-04
	-5.958989431631080e-03
	8.226940485445368e-02
	7.172180488384043e-01

 78	4.511072205006800e-07
	1.200000000000000e+01
	6.040944035529583e+00
	-9.676716507383336e-07
	5.000000000000000e+00
	1.199998832261752e+01
	-4.282734444455460e-04
	-5.959172738295253e-03
	8.188807105916596e-02
	7.172655555445402e-01

 79	4.611072205006800e-07
	1.200000000000000e+01
	6.040762934963248e+00
	-9.170186804786014e-07
	5.000000000000000e+00
	1.199998880808336e+01
	-4.282688594703430e-04
	-5.959348984203135e-03
	8.152586992649664e-02
	7.173114052965697e-01

 80	4.711072205006800e-07
	1.200000000000000e+01
	6.040590782485267e+00
	-8.740070934612250e-07
	5.000000000000000e+00
	1.199998944351975e+01
	-4.282644345002606e-04
	-5.959514782317236e-03
	8.118156497053401e-02
	7.173556549973940e-01

 81	4.811072205006800e-07
	1.200000000000000e+01
	6.040427002275030e+00
	-8.297514767816757e-07
	5.000000000000000e+00
	1.199998987597428e+01
	-4.282601632716301e-04
	-5.959674237982129e-03
	8.085400455005992e-02
	7.173983672836994e-01

 82	4.911072205006800e-07
	1.200000000000000e+01
	6.040271076363176e+00
	-7.918538109039219e-07
	5.000000000000000e+00
	1.199999042801403e+01
	-4.282560405728855e-04
	-5.959824643496510e-03
	8.054215272635103e-02
	7.174395942711451e-01

 83	5.011072205006800e-07
	1.200000000000000e+01
	6.040122520625831e+00
	-7.529713224375656e-07
	5.000000000000000e+00
	1.199999081511235e+01
	-4.282520606082101e-04
	-5.959969328250624e-03
	8.024504125166090e-02
	7.174793939178993e-01

 84	5.111072205006800e-07
	1.200000000000000e+01
	6.039980897161892e+00
	-7.193957079921067e-07
	5.000000000000000e+00
	1.199999129745465e+01
	-4.282482185845835e-04
	-5.960106128291586e-03
	7.996179432378488e-02
	7.175178141541650e-01

 85	5.211072205006800e-07
	1.200000000000000e+01
	6.039845795474752e+00
	-6.850621124588013e-07
	5.000000000000000e+00
	1.199999164537357e+01
	-4.282445091469555e-04
	-5.960237750789558e-03
	7.969159094950451e-02
	7.175549085304453e-01

 86	5.311072205006800e-07
	1.200000000000000e+01
	6.039716842354706e+00
	-6.551714848420374e-07
	5.000000000000000e+00
	1.199999206903892e+01
	-4.282409278721821e-04
	-5.960362467256105e-03
	7.943368470941312e-02
	7.175907212781791e-01

 87	5.411072205006800e-07
	1.200000000000000e+01
	6.039593687069949e+00
	-6.247167100459877e-07
	5.000000000000000e+00
	1.199999238283870e+01
	-4.282374698171202e-04
	-5.960482484543035e-03
	7.918737413989836e-02
	7.176253018287982e-01

 88	5.511072205006801e-07
	1.200000000000000e+01
	6.039476009233383e+00
	-5.979926032633148e-07
	5.000000000000000e+00
	1.199999275676813e+01
	-4.282341308887970e-04
	-5.960596423085359e-03
	7.895201846676773e-02
	7.176586911120300e-01

 89	5.611072205006801e-07
	1.200000000000000e+01
	6.039363507104898e+00
	-5.708669089175707e-07
	5.000000000000000e+00
	1.199999304065004e+01
	-4.282309065266529e-04
	-5.960706086394709e-03
	7.872701420979623e-02
	7.176909347334712e-01

 90	5.711072205006801e-07
	1.200000000000000e+01
	6.039255903841746e+00
	-5.468829362857054e-07
	5.000000000000000e+00
	1.199999337215458e+01
	-4.282277929350962e-04
	-5.960810374612466e-03
	7.851180768349152e-02
	7.177220706490384e-01

 91	5.811072205006801e-07
	1.200000000000000e+01
	6.039152938224863e+00
	-5.226315629757181e-07
	5.000000000000000e+00
	1.199999362964730e+01
	-4.282247859073033e-04
	-5.960910765302092e-03
	7.830587644972604e-02
	7.177521409269669e-01

 92	5.911072205006801e-07
	1.200000000000000e+01
	6.039054369618857e+00
	-5.010337063270111e-07
	5.000000000000000e+00
	1.199999392474870e+01
	-4.282218819175931e-04
	-5.961006382894158e-03
	7.810873923771414e-02
	7.177811808240692e-01

 93	6.011072205006801e-07
	1.200000000000000e+01
	6.038959970594228e+00
	-4.792776230890842e-07
	5.000000000000000e+00
	1.199999415884661e+01
	-4.282190770851390e-04
	-5.961098440939679e-03
	7.791994118845677e-02
	7.178092291486097e-01

 94	6.111072205006801e-07
	1.200000000000000e+01
	6.038869530860123e+00
	-4.597693845386320e-07
	5.000000000000000e+00
	1.199999442253814e+01
	-4.282163681308026e-04
	-5.961186243758475e-03
	7.773906172024544e-02
	7.178363186919742e-01

 95	6.211072205006801e-07
	1.200000000000000e+01
	6.038782851374926e+00
	-4.401904905220972e-07
	5.000000000000000e+00
	1.199999463580448e+01
	-4.282137514735146e-04
	-5.961270790580311e-03
	7.756570274985285e-02
	7.178624852648543e-01

 96	6.311072205006801e-07
	1.200000000000000e+01
	6.038699747462621e+00
	-4.225215680124502e-07
	5.000000000000000e+00
	1.199999487225285e+01
	-4.282112240604986e-04
	-5.961351530008843e-03
	7.739949492524155e-02
	7.178877593950139e-01

 97	6.411072205006801e-07
	1.200000000000000e+01
	6.038620044096022e+00
	-4.048511931446909e-07
	5.000000000000000e+00
	1.199999506689906e+01
	-4.282087825859141e-04
	-5.961429286913428e-03
	7.724008819204296e-02
	7.179121741408588e-01

 98	6.511072205006802e-07
	1.200000000000000e+01
	6.038543578364869e+00
	-3.888087440107875e-07
	5.000000000000000e+00
	1.199999527960227e+01
	-4.282064242056705e-04
	-5.961503625612485e-03
	7.708715672973673e-02
	7.179357579432947e-01

 99	6.611072205006802e-07
	1.200000000000000e+01
	6.038470195686173e+00
	-3.728186246215672e-07
	5.000000000000000e+00
	1.199999545754869e+01
	-4.282041458664248e-04
	-5.961575228826888e-03
	7.694039137234575e-02
	7.179585413357521e-01

 100	6.711072205006802e-07
	1.200000000000000e+01
	6.038399751757744e+00
	-3.582204532367303e-07
	5.000000000000000e+00
	1.199999564946012e+01
	-4.282019449170892e-04
	-5.961643753641081e-03
	7.679950351548781e-02
	7.179805508291082e-01

 101	6.811072205006802e-07
	1.200000000000000e+01
	6.038332109503964e+00
	-3.437155861250059e-07
	5.000000000000000e+00
	1.199999581238454e+01
	-4.281998185358859e-04
	-5.961709766650673e-03
	7.666421900792700e-02
	7.180018146411415e-01

 102	6.911072205006802e-07
	1.200000000000000e+01
	6.038267140620920e+00
	-3.304047787555619e-07
	5.000000000000000e+00
	1.199999598601101e+01
	-4.281977642506613e-04
	-5.961772999268949e-03
	7.653428124183874e-02
	7.180223574933869e-01

 103	7.011072205006802e-07
	1.200000000000000e+01
	6.038204723107431e+00
	-3.172177159113904e-07
	5.000000000000000e+00
	1.199999613538657e+01
	-4.281957794520127e-04
	-5.961833923026847e-03
	7.640944621486241e-02
	7.180422054798734e-01

 104	7.111072205006802e-07
	1.200000000000000e+01
	6.038144742486021e+00
	-3.050583757464849e-07
	5.000000000000000e+00
	1.199999629286698e+01
	-4.281938618339834e-04
	-5.961892328844184e-03
	7.628948497204210e-02
	7.180613816601660e-01

 105	7.211072205006802e-07
	1.200000000000000e+01
	6.038087089801132e+00
	-2.930446349257647e-07
	5.000000000000000e+00
	1.199999642999303e+01
	-4.281920089820072e-04
	-5.961948610268546e-03
	7.617417960226355e-02
	7.180799101799282e-01

 106	7.311072205006802e-07
	1.200000000000000e+01
	6.038031662582746e+00
	-2.819184617543231e-07
	5.000000000000000e+00
	1.199999657316142e+01
	-4.281902187447049e-04
	-5.962002605803040e-03
	7.606332516549290e-02
	7.180978125529514e-01

 107	7.411072205006802e-07
	1.200000000000000e+01
	6.037978363218669e+00
	-2.709528090468089e-07
	5.000000000000000e+00
	1.199999669918881e+01
	-4.281884888863517e-04
	-5.962054644893223e-03
	7.595672643733760e-02
	7.181151111364825e-01

 108	7.511072205006803e-07
	1.200000000000000e+01
	6.037927099713811e+00
	-2.607563336259986e-07
	5.000000000000000e+00
	1.199999682962500e+01
	-4.281868173994820e-04
	-5.962104604036200e-03
	7.585419942762205e-02
	7.181318260051797e-01

 109	7.611072205006803e-07
	1.200000000000000e+01
	6.037877784362824e+00
	-2.507297528049833e-07
	5.000000000000000e+00
	1.199999694557656e+01
	-4.281852022126428e-04
	-5.962152759871575e-03
	7.575556872564890e-02
	7.181479778735721e-01

 110	7.711072205006803e-07
	1.200000000000000e+01
	6.037830334347138e+00
	-2.413720833985076e-07
	5.000000000000000e+00
	1.199999706464769e+01
	-4.281836414524503e-04
	-5.962199019176015e-03
	7.566066869427546e-02
	7.181635854754972e-01

 111	7.811072205006803e-07
	1.200000000000000e+01
	6.037784670649437e+00
	-2.321892903780188e-07
	5.000000000000000e+00
	1.199999717143540e+01
	-4.281821331984584e-04
	-5.962243614996606e-03
	7.556934129887249e-02
	7.181786680154161e-01

 112	7.911072205006803e-07
	1.200000000000000e+01
	6.037740718521856e+00
	-2.235902630726093e-07
	5.000000000000000e+00
	1.199999728032967e+01
	-4.281806757022698e-04
	-5.962286478181437e-03
	7.548143704371148e-02
	7.181932429773019e-01

 113	8.011072205006803e-07
	1.200000000000000e+01
	6.037698406595740e+00
	-2.151676561465182e-07
	5.000000000000000e+00
	1.199999737876914e+01
	-4.281792671823702e-04
	-5.962327805712907e-03
	7.539681319148012e-02
	7.182073281762983e-01

 114	8.111072205006803e-07
	1.200000000000000e+01
	6.037657667247537e+00
	-2.072563061232381e-07
	5.000000000000000e+00
	1.199999747852332e+01
	-4.281779060069102e-04
	-5.962367547519309e-03
	7.531533449507494e-02
	7.182209399308974e-01

 115	8.211072205006803e-07
	1.200000000000000e+01
	6.037618435866642e+00
	-1.995202666341294e-07
	5.000000000000000e+00
	1.199999756934572e+01
	-4.281765905223124e-04
	-5.962405870676150e-03
	7.523687173328358e-02
	7.182340947768757e-01

 116	8.311072205006803e-07
	1.200000000000000e+01
	6.037580651140106e+00
	-1.922335567018320e-07
	5.000000000000000e+00
	1.199999766086824e+01
	-4.281753192054330e-04
	-5.962442740177457e-03
	7.516130228021194e-02
	7.182468079456702e-01

 117	8.411072205006803e-07
	1.200000000000000e+01
	6.037544254448788e+00
	-1.851190332471525e-07
	5.000000000000000e+00
	1.199999774473090e+01
	-4.281740905206127e-04
	-5.962478298242166e-03
	7.508850889757518e-02
	7.182590947938734e-01

 118	8.511072205006804e-07
	1.200000000000000e+01
	6.037509190087675e+00
	-1.784007898377253e-07
	5.000000000000000e+00
	1.199999782882057e+01
	-4.281729030461144e-04
	-5.962512521706665e-03
	7.501838017534815e-02
	7.182709695388563e-01

 119	8.611072205006804e-07
	1.200000000000000e+01
	6.037475404766428e+00
	-1.718501131839154e-07
	5.000000000000000e+00
	1.199999790631549e+01
	-4.281717553550616e-04
	-5.962545532078651e-03
	7.495080953285614e-02
	7.182824464493841e-01

 120	8.711072205006804e-07
	1.200000000000000e+01
	6.037442847778691e+00
	-1.656501309311193e-07
	5.000000000000000e+00
	1.199999798367719e+01
	-4.281706461203244e-04
	-5.962577315449448e-03
	7.488569555738246e-02
	7.182935387967567e-01

 121	8.811072205006804e-07
	1.200000000000000e+01
	6.037411470587790e+00
	-1.596120176410631e-07
	5.000000000000000e+00
	1.199999805533873e+01
	-4.281695740154699e-04
	-5.962607976024925e-03
	7.482294117557907e-02
	7.183042598453008e-01

 122	8.911072205006804e-07
	1.200000000000000e+01
	6.037381226955661e+00
	-1.538853017546749e-07
	5.000000000000000e+00
	1.199999812659689e+01
	-4.281685378016370e-04
	-5.962637507075486e-03
	7.476245391132284e-02
	7.183146219836304e-01

 123	9.011072205006804e-07
	1.200000000000000e+01
	6.037352072598194e+00
	-1.483140129734452e-07
	5.000000000000000e+00
	1.199999819290840e+01
	-4.281675362452171e-04
	-5.962665998317808e-03
	7.470414519638822e-02
	7.183246375478286e-01

 124	9.111072205006804e-07
	1.200000000000000e+01
	6.037323965282264e+00
	-1.430201349981829e-07
	5.000000000000000e+00
	1.199999825861756e+01
	-4.281665681897066e-04
	-5.962693448542114e-03
	7.464793056452734e-02
	7.183343181029339e-01

 125	9.211072205006804e-07
	1.200000000000000e+01
	6.037296864538139e+00