Title: * simulation of motor
Date: Tue Aug 11 20:07:27  2009
Plotname: Transient Analysis
Flags: real
No. Variables: 10
No. Points: 3116
Variables:
	0	time	time
	1	v(1)	voltage
	2	v(2)	voltage
	3	v(3)	voltage
	4	in	voltage
	5	out	voltage
	6	v2#branch	current
	7	v_motor#branch	current
	8	vbase	voltage
	9	vbasebc	voltage
Values:
 0	0.000000000000000e+00
	1.200000000000000e+01
	1.088558145028056e+01
	4.803630286923998e-02
	0.000000000000000e+00
	7.222230117680489e+00
	8.591476952346296e-13
	-4.889211737291455e-02
	8.558145028056129e-01
	8.591476952346296e-09

 1	1.000000000000000e-10
	1.200000000000000e+01
	1.088558145032671e+01
	4.803630333378719e-02
	0.000000000000000e+00
	7.222230069257373e+00
	8.687209475098578e-13
	-4.889211785709956e-02
	8.558145032671151e-01
	8.687209475098577e-09

 2	2.000000000000000e-10
	1.200000000000000e+01
	1.088558145037017e+01
	4.803630365548105e-02
	0.000000000000000e+00
	7.222230036833477e+00
	8.774081006867701e-13
	-4.889211818129507e-02
	8.558145037016559e-01
	8.774081006867701e-09

 3	4.000000000000000e-10
	1.200000000000000e+01
	1.088558145043924e+01
	4.803630409505633e-02
	0.000000000000000e+00
	7.222229993471906e+00
	8.910081761288905e-13
	-4.889211861484170e-02
	8.558145043924229e-01
	8.910081761288905e-09

 4	8.000000000000000e-10
	1.200000000000000e+01
	1.088558145048729e+01
	4.803630432653132e-02
	0.000000000000000e+00
	7.222229971823245e+00
	9.002123510140652e-13
	-4.889211883128026e-02
	8.558145048728776e-01
	9.002123510140652e-09

 5	1.600000000000000e-09
	1.200000000000000e+01
	1.088558145048201e+01
	4.803630431187300e-02
	0.000000000000000e+00
	7.222229973166713e+00
	8.990840212729539e-13
	-4.889211881785086e-02
	8.558145048201062e-01
	8.990840212729538e-09

 6	3.200000000000000e-09
	1.200000000000000e+01
	1.088558145047493e+01
	4.803630428091208e-02
	0.000000000000000e+00
	7.222229976368425e+00
	8.974536938437888e-13
	-4.889211878584083e-02
	8.558145047492691e-01
	8.974536938437888e-09

 7	6.400000000000000e-09
	1.200000000000000e+01
	1.088558145045821e+01
	4.803630422019161e-02
	0.000000000000000e+00
	7.222229982372599e+00
	8.937700560197219e-13
	-4.889211872581580e-02
	8.558145045821134e-01
	8.937700560197218e-09

 8	1.000000000000000e-08
	1.200000000000000e+01
	1.088558145044194e+01
	4.803630415497451e-02
	0.000000000000000e+00
	7.222229988989683e+00
	8.901378271526144e-13
	-4.889211865966123e-02
	8.558145044194347e-01
	8.901378271526143e-09

 9	1.000848032495720e-08
	1.200000000000000e+01
	1.088558148870402e+01
	4.803633551960181e-02
	4.240162478599418e-03
	7.222230047696903e+00
	-4.235394317303062e-07
	-4.889211803432695e-02
	8.558148870402262e-01
	4.768161296356396e-06

 10	1.002544097487160e-08
	1.200000000000000e+01
	1.088558157720340e+01
	4.803640806134243e-02
	1.272048743579743e-02
	7.222230176614274e+00
	-1.270594913312924e-06
	-4.889211665665386e-02
	8.558157720339893e-01
	1.453830266819182e-05

 11	1.005936227470039e-08
	1.200000000000000e+01
	1.088558181348824e+01
	4.803660197993866e-02
	2.968113735019428e-02
	7.222230442128512e+00
	-2.964557194672837e-06
	-4.889211376522665e-02
	8.558181348823415e-01
	3.556540346590901e-05

 12	1.012720487435798e-08
	1.200000000000000e+01
	1.088558243575809e+01
	4.803711667483791e-02
	6.360243717898797e-02
	7.222230419480369e+00
	-6.351902994908035e-06
	-4.889211336943822e-02
	8.558243575809129e-01
	8.340722990762024e-05

 13	1.026289007367315e-08
	1.200000000000000e+01
	1.088558394752405e+01
	4.803840821221361e-02
	1.314450368365745e-01
	7.222224306678152e+00
	-1.312434038335105e-05
	-4.889217298569444e-02
	8.558394752404530e-01
	2.016330030640548e-04

 14	1.053426047230350e-08
	1.200000000000000e+01
	1.088558729799973e+01
	4.804158197454240e-02
	2.671302361517485e-01
	7.222168850463437e+00
	-2.666033812996758e-05
	-4.889272419736590e-02
	8.558729799972764e-01
	5.268548520726792e-04

 15	1.107700126956419e-08
	1.200000000000000e+01
	1.088559462770571e+01
	4.805022717280941e-02
	5.385006347820955e-01
	7.221827508580877e+00
	-5.369699483741167e-05
	-4.889613028648552e-02
	8.559462770571280e-01
	1.530686407978807e-03

 16	1.216248286408558e-08
	1.200000000000000e+01
	1.088561184528457e+01
	4.807744223516954e-02
	1.081241432042790e+00
	7.220144916575335e+00
	-1.076293917896663e-04
	-4.891293898896208e-02
	8.561184528456965e-01
	4.947514146126691e-03

 17	1.433344605312836e-08
	1.200000000000000e+01
	1.088565637716688e+01
	4.817113047737009e-02
	2.166723026564178e+00
	7.212827360047904e+00
	-2.149352502203787e-04
	-4.898607002235408e-02
	8.565637716687968e-01
	1.737052436039112e-02

 18	1.867537243121391e-08
	1.200000000000000e+01
	1.088578330284961e+01
	4.850749859674428e-02
	4.337686215606956e+00
	7.183150533750639e+00
	-4.273769289936778e-04
	-4.928271135964401e-02
	8.578330284960907e-01
	6.391692567017813e-02

 19	2.000000000000000e-08
	1.200000000000000e+01
	1.088583113691464e+01
	4.864765714002504e-02
	5.000000000000000e+00
	7.170264716657004e+00
	-4.916339334475698e-04
	-4.941152169651532e-02
	8.583113691464076e-01
	8.366066552430221e-02

 20	2.047966203174881e-08
	1.200000000000000e+01
	1.088584457188797e+01
	4.869809363710841e-02
	5.000000000000000e+00
	7.165233996265239e+00
	-4.909031315755689e-04
	-4.946181546545964e-02
	8.584457188797032e-01
	9.096868424431062e-02

 21	2.143898609524642e-08
	1.200000000000000e+01
	1.088586996159577e+01
	4.879757307128617e-02
	5.000000000000000e+00
	7.155201215172243e+00
	-4.894509832111876e-04
	-4.956211788668181e-02
	8.586996159576693e-01
	1.054901678881244e-01

 22	2.335763422224165e-08
	1.200000000000000e+01
	1.088591937393272e+01
	4.899188451949758e-02
	5.000000000000000e+00
	7.135596155889228e+00
	-4.865878790450079e-04
	-4.975811906717501e-02
	8.591937393271376e-01
	1.341212095499212e-01

 23	2.719493047623212e-08
	1.200000000000000e+01
	1.088601278305794e+01
	4.935987974054772e-02
	5.000000000000000e+00
	7.098457856678005e+00
	-4.810251389040393e-04
	-5.012940865016201e-02
	8.601278305794042e-01
	1.897486109596070e-01

 24	3.486952298421304e-08
	1.200000000000000e+01
	1.088617889531038e+01
	5.001830567161644e-02
	5.000000000000000e+00
	7.031943879503185e+00
	-4.705447113734043e-04
	-5.079438230965777e-02
	8.617889531038061e-01
	2.945528862659568e-01

 25	4.486952298421305e-08
	1.200000000000000e+01
	1.088635618019037e+01
	5.072885951280737e-02
	5.000000000000000e+00
	6.960010536341689e+00
	-4.581640340036980e-04
	-5.151353845639274e-02
	8.635618019037313e-01
	4.183596599630203e-01

 26	5.486952298421304e-08
	1.200000000000000e+01
	1.088648369715805e+01
	5.126272402875364e-02
	5.000000000000000e+00
	6.905413785558256e+00
	-4.471010144946196e-04
	-5.205937844725940e-02
	8.648369715804650e-01
	5.289898550538039e-01

 27	6.486952298421304e-08
	1.200000000000000e+01
	1.088592076712876e+01
	5.004657957417119e-02
	5.000000000000000e+00
	7.001630791067236e+00
	-4.374052813665656e-04
	-5.109777132219889e-02
	8.592076712875907e-01
	6.259471863343439e-01

 28	7.152710320400690e-08
	1.200000000000000e+01
	1.088284366376505e+01
	4.281721021714100e-02
	5.000000000000000e+00
	7.604339741811276e+00
	-4.327568615885403e-04
	-4.507375891812219e-02
	8.284366376505018e-01
	6.724313841145968e-01

 29	7.621753399017776e-08
	1.200000000000000e+01
	1.087773575526715e+01
	2.972954525331129e-02
	5.000000000000000e+00
	8.761727480619998e+00
	-4.307239625934382e-04
	-3.350498943853288e-02
	7.773575526714775e-01
	6.927603740656184e-01

 30	8.016575608840747e-08
	1.200000000000000e+01
	1.087081728499298e+01
	1.228829489330852e-02
	5.000000000000000e+00
	1.037583493128899e+01
	-4.296109146715761e-04
	-1.737083340211710e-02
	7.081728499298294e-01
	7.038908532842391e-01

 31	8.234903476948286e-08
	1.200000000000000e+01
	1.086492217281191e+01
	1.503179888114945e-03
	5.000000000000000e+00
	1.141115903328025e+01
	-4.292434952657393e-04
	-7.023487494385632e-03
	6.492217281191418e-01
	7.075650473426075e-01

 32	8.365472990179577e-08
	1.200000000000000e+01
	1.085852937710188e+01
	-2.670166248087978e-03
	5.000000000000000e+00
	1.186011092302357e+01
	-4.292684551716543e-04
	-2.540361392662373e-03
	5.852937710188437e-01
	7.073154482834568e-01

 33	8.509190308532730e-08
	1.200000000000000e+01
	1.084769209478168e+01
	-3.081516890491938e-03
	5.000000000000000e+00
	1.198564957904004e+01
	-4.296179094669210e-04
	-1.295812114817963e-03
	4.769209478168149e-01
	7.038209053307906e-01

 34	8.631290439026939e-08
	1.200000000000000e+01
	1.083840517724156e+01
	-2.430219229049080e-03
	5.000000000000000e+00
	1.197072903304926e+01
	-4.299604448014218e-04
	-1.454304492265848e-03
	3.840517724155709e-01
	7.003955519857822e-01

 35	8.762558639256502e-08
	1.200000000000000e+01
	1.082975346989051e+01
	-1.991696430282183e-03
	5.000000000000000e+00
	1.198008742272496e+01
	-4.302863069668105e-04
	-1.369372302859908e-03
	2.975346989051110e-01
	6.971369303318955e-01

 36	8.952207861972508e-08
	1.200000000000000e+01
	1.081980894443411e+01
	-1.308164820159278e-03
	5.000000000000000e+00
	1.198325249931373e+01
	-4.308052305185066e-04
	-1.347666062428553e-03
	1.980894443411256e-01
	6.919476948149343e-01

 37	9.196991975075509e-08
	1.200000000000000e+01
	1.081375029509236e+01
	-3.339977644020080e-04
	5.000000000000000e+00
	1.199514546892097e+01
	-4.317814915825584e-04
	-1.234795015697996e-03
	1.375029509235604e-01
	6.821850841744164e-01

 38	9.305726168062196e-08
	1.200000000000000e+01
	1.081248992349406e+01
	-3.073337600012761e-04
	5.000000000000000e+00
	1.199650292581868e+01
	-4.321232097900575e-04
	-1.222480818319166e-03
	1.248992349405480e-01
	6.787679020994249e-01

 39	9.406100217661473e-08
	1.200000000000000e+01
	1.081174475834863e+01
	-1.752014152285293e-04
	5.000000000000000e+00
	1.199737197503685e+01
	-4.322902505220790e-04
	-1.214535491282925e-03
	1.174475834862454e-01
	6.770974947792103e-01

 40	9.538032694536495e-08
	1.200000000000000e+01
	1.081102155895574e+01
	-1.370471896953746e-04
	5.000000000000000e+00
	1.199842411060162e+01
	-4.324473750473359e-04
	-1.204737335028046e-03
	1.102155895573568e-01
	6.755262495266410e-01

 41	9.710779336909531e-08
	1.200000000000000e+01
	1.081036753589128e+01
	-8.318895777746251e-05
	5.000000000000000e+00
	1.199882801835247e+01
	-4.325429798201406e-04
	-1.201352280583972e-03
	1.036753589128466e-01
	6.745702017985943e-01

 42	9.904503224346727e-08
	1.200000000000000e+01
	1.080983235280361e+01
	-6.788440278273577e-05
	5.000000000000000e+00
	1.199923329059398e+01
	-4.325886673199279e-04
	-1.197834741256614e-03
	9.832352803613201e-02
	6.741133268007213e-01

 43	1.022639799368869e-07
	1.200000000000000e+01
	1.080917420237907e+01
	-4.404180093030823e-05
	5.000000000000000e+00
	1.199939639022526e+01
	-4.326023477639863e-04
	-1.196861895368359e-03
	9.174202379070616e-02
	6.739765223601375e-01

 44	1.056609684270712e-07
	1.200000000000000e+01
	1.080864738969734e+01
	-3.821566090581631e-05
	5.000000000000000e+00
	1.199957824015719e+01
	-4.325947496132786e-04
	-1.195570208730750e-03
	8.647389697338163e-02
	6.740525038672136e-01

 45	1.124222961429981e-07
	1.200000000000000e+01
	1.080787370701741e+01
	-2.277056989064877e-05
	5.000000000000000e+00
	1.199967666512040e+01
	-4.325634326295204e-04
	-1.195359641778571e-03
	7.873707017408352e-02
	6.743656737047956e-01

 46	1.190634462850342e-07
	1.200000000000000e+01
	1.080731552670646e+01
	-2.102145940412790e-05
	5.000000000000000e+00
	1.199978143690499e+01
	-4.325258746502174e-04
	-1.194870104243671e-03
	7.315526706458773e-02
	6.747412534978260e-01

 47	1.290634462850342e-07
	1.200000000000000e+01
	1.080668694822977e+01
	-1.202768668473706e-05
	5.000000000000000e+00
	1.199981494112031e+01
	-4.324681721680744e-04
	-1.195163640567179e-03
	6.686948229764678e-02
	6.753182783192563e-01

 48	1.390634462850342e-07
	1.200000000000000e+01
	1.080621731797333e+01
	-1.219251402783250e-05
	5.000000000000000e+00
	1.199988469761121e+01
	-4.324133188476780e-04
	-1.194935705914579e-03
	6.217317973328912e-02
	6.758668115232198e-01

 49	1.490634462850342e-07
	1.200000000000000e+01
	1.080584453580512e+01
	-7.275143253264828e-06
	5.000000000000000e+00
	1.199987813404284e+01
	-4.323593127872628e-04
	-1.195374123766488e-03
	5.844535805116684e-02
	6.764068721273724e-01

 50	1.590634462850342e-07
	1.200000000000000e+01
	1.080554227946379e+01
	-8.207615695138685e-06
	5.000000000000000e+00
	1.199992870630953e+01
	-4.323096725809506e-04
	-1.195170657440887e-03
	5.542279463792689e-02
	6.769032741904935e-01

 51	1.690634462850342e-07
	1.200000000000000e+01
	1.080528996058178e+01
	-4.919321056422355e-06
	5.000000000000000e+00
	1.199991170966238e+01
	-4.322615213819154e-04
	-1.195592942794391e-03
	5.289960581781315e-02
	6.773847861808457e-01

 52	1.790634462850342e-07
	1.200000000000000e+01
	1.080507471297832e+01
	-6.051685495726263e-06
	5.000000000000000e+00
	1.199995082676006e+01
	-4.322171554506758e-04
	-1.195417019421072e-03
	5.074712978316877e-02
	6.778284454932426e-01

 53	1.890634462850342e-07
	1.200000000000000e+01
	1.080488870430525e+01
	-3.603316735686558e-06
	5.000000000000000e+00
	1.199993197549797e+01
	-4.321739568015395e-04
	-1.195791540715014e-03
	4.888704305247903e-02
	6.782604319846054e-01

 54	1.990634462850343e-07
	1.200000000000000e+01
	1.080472551146245e+01
	-4.686849029360272e-06
	5.000000000000000e+00
	1.199996380181495e+01
	-4.321339947269947e-04
	-1.195636470388058e-03
	4.725511462448278e-02
	6.786600527300527e-01

 55	2.090634462850343e-07
	1.200000000000000e+01
	1.080458140446187e+01
	-2.780286856287462e-06
	5.000000000000000e+00
	1.199994565426151e+01
	-4.320950552320468e-04
	-1.195962052923061e-03
	4.581404461865785e-02
	6.790494476795320e-01

 56	2.190634462850343e-07
	1.200000000000000e+01
	1.080445266261942e+01
	-3.744754172155948e-06
	5.000000000000000e+00
	1.199997210443216e+01
	-4.320588774600024e-04
	-1.195826293058964e-03
	4.452662619418246e-02
	6.794112253999758e-01

 57	2.290634462850343e-07
	1.200000000000000e+01
	1.080433725032179e+01
	-2.226641502259447e-06
	5.000000000000000e+00
	1.199995553542914e+01
	-4.320236422803097e-04
	-1.196107395386825e-03
	4.337250321786734e-02
	6.797635771969025e-01

 58	2.390634462850343e-07
	1.200000000000000e+01
	1.080423280815519e+01
	-3.058392532873841e-06
	5.000000000000000e+00
	1.199997772846753e+01
	-4.319907698757356e-04
	-1.195989907169471e-03
	4.232808155186184e-02
	6.800923012426444e-01

 59	2.490634462850343e-07
	1.200000000000000e+01
	1.080413812122515e+01
	-1.833992014808887e-06
	5.000000000000000e+00
	1.199996300217597e+01
	-4.319587802349651e-04
	-1.196231857015126e-03
	4.138121225151127e-02
	6.804121976503490e-01

 60	2.590634462850343e-07
	1.200000000000000e+01
	1.080405160209585e+01
	-2.539353408310774e-06
	5.000000000000000e+00
	1.199998170418396e+01
	-4.319288224923628e-04
	-1.196131356064525e-03
	4.051602095850848e-02
	6.807117750763724e-01

 61	2.690634462850343e-07
	1.200000000000000e+01
	1.080397247528627e+01
	-1.543760212966571e-06
	5.000000000000000e+00
	1.199996882616169e+01
	-4.318996951875955e-04
	-1.196339263096810e-03
	3.972475286263864e-02
	6.810030481240451e-01

 62	2.790634462850343e-07
	1.200000000000000e+01
	1.080389962658334e+01
	-2.135970462846838e-06
	5.000000000000000e+00
	1.199998461440577e+01
	-4.318723254009407e-04
	-1.196254229358923e-03
	3.899626583341890e-02
	6.812767459905937e-01

 63	2.890634462850343e-07
	1.200000000000000e+01
	1.080383253343597e+01
	-1.321874776538786e-06
	5.000000000000000e+00
	1.199997347509079e+01
	-4.318457372383188e-04
	-1.196432715656167e-03
	3.832533435965872e-02
	6.815426276168116e-01

 64	2.990634462850344e-07
	1.200000000000000e+01
	1.080377038847993e+01
	-1.815838904590411e-06
	5.000000000000000e+00
	1.199998680998127e+01
	-4.318206780254423e-04
	-1.196361511707380e-03
	3.770388479928272e-02
	6.817932197455766e-01

 65	3.090634462850344e-07
	1.200000000000000e+01
	1.080371282325379e+01
	-1.147404021105140e-06
	5.000000000000000e+00
	1.199997725106951e+01
	-4.317963538358159e-04
	-1.196514666051083e-03
	3.712823253788206e-02
	6.820364616418411e-01

 66	3.190634462850344e-07
	1.200000000000000e+01
	1.080365923800098e+01
	-1.557520910949878e-06
	5.000000000000000e+00
	1.199998851187111e+01
	-4.317733670505816e-04
	-1.196455643287896e-03
	3.659238000979780e-02
	6.822663294941834e-01

 67	3.290634462850344e-07
	1.200000000000000e+01
	1.080360936266091e+01
	-1.006921342540876e-06
	5.000000000000000e+00
	1.199998035940169e+01
	-4.317510705249104e-04
	-1.196587043322141e-03
	3.609362660912735e-02
	6.824892947508963e-01

 68	3.390634462850344e-07
	1.200000000000000e+01
	1.080356274266450e+01
	-1.346232203905047e-06
	5.000000000000000e+00
	1.199998986406708e+01
	-4.317299498802040e-04
	-1.196538616664681e-03
	3.562742664501375e-02
	6.827005011979604e-01

 69	3.490634462850344e-07
	1.200000000000000e+01
	1.080351917340531e+01
	-8.915034452061898e-07
	5.000000000000000e+00
	1.199998294546064e+01
	-4.317094765191445e-04
	-1.196651371988274e-03
	3.519173405305245e-02
	6.829052348085551e-01

 70	3.590634462850344e-07
	1.200000000000000e+01
	1.080347830455784e+01
	-1.171433869246675e-06
	5.000000000000000e+00
	1.199999096294591e+01
	-4.316900419950493e-04
	-1.196612065983064e-03
	3.478304557837845e-02
	6.830995800495064e-01

 71	3.690634462850344e-07
	1.200000000000000e+01
	1.080343997666535e+01
	-7.950388990812010e-07
	5.000000000000000e+00
	1.199998511568172e+01
	-4.316712136217698e-04
	-1.196708866517429e-03
	3.439976665348081e-02
	6.832878637823018e-01

 72	3.790634462850344e-07
	1.200000000000000e+01
	1.080340391586745e+01
	-1.025408977074666e-06
	5.000000000000000e+00
	1.199999187443184e+01
	-4.316533071226626e-04
	-1.196677339814116e-03
	3.403915867448695e-02
	6.834669287733744e-01

 73	3.890634462850344e-07
	1.200000000000000e+01
	1.080336999489060e+01
	-7.132309737008333e-07
	5.000000000000000e+00
	1.199998695013843e+01
	-4.316359675571781e-04
	-1.196760503725066e-03
	3.369994890600782e-02
	6.836403244282195e-01

 74	3.990634462850345e-07
	1.200000000000000e+01
	1.080333799696842e+01
	-9.023808621487713e-07
	5.000000000000000e+00
	1.199999264445478e+01
	-4.316194494760985e-04
	-1.196735558483780e-03
	3.337996968423190e-02
	6.838055052390148e-01

 75	4.090634462850345e-07
	1.200000000000000e+01
	1.080330781846039e+01
	-6.429874281319228e-07
	5.000000000000000e+00
	1.199998851041653e+01
	-4.316034610829429e-04
	-1.196807077374363e-03
	3.307818460388708e-02
	6.839653891705709e-01

 76	4.190634462850345e-07
	1.200000000000000e+01
	1.080327928587685e+01
	-7.979450474340081e-07
	5.000000000000000e+00
	1.199999330553777e+01
	-4.315882075427318e-04
	-1.196787658745482e-03
	3.279285876847278e-02
	6.841179245726817e-01

 77	4.290634462850345e-07
	1.200000000000000e+01
	1.080325231340282e+01
	-5.820351969757334e-07
	5.000000000000000e+00
	1.199998984473887e+01
	-4.315734484442928e-04
	-1.196849239208484e-03
	3.252313402816390e-02
	6.842655155570724e-01

 78	4.390634462850345e-07
	1.200000000000000e+01
	1.080322676078178e+01
	-7.086908334485446e-07
	5.000000000000000e+00
	1.199999388105790e+01
	-4.315593490539791e-04
	-1.196834428639198e-03
	3.226760781784006e-02
	6.844065094602090e-01

 79	4.490634462850345e-07
	1.200000000000000e+01
	1.080320255596889e+01
	-5.286704760560083e-07
	5.000000000000000e+00
	1.199999099142014e+01
	-4.315457108580274e-04
	-1.196887529829761e-03
	3.202555968884476e-02
	6.845428914197259e-01

 80	4.590634462850345e-07
	1.200000000000000e+01
	1.080317958452257e+01
	-6.319419265191322e-07
	5.000000000000000e+00
	1.199999438806271e+01
	-4.315326668681756e-04
	-1.196876534850332e-03
	3.179584522570508e-02
	6.846733313182445e-01

 81	4.690634462850345e-07
	1.200000000000000e+01
	1.080315778526133e+01
	-4.815928141726095e-07
	5.000000000000000e+00
	1.199999198126728e+01
	-4.315200527975324e-04
	-1.196922402065887e-03
	3.157785261329847e-02
	6.847994720246758e-01

 82	4.790634462850345e-07
	1.200000000000000e+01
	1.080313706400374e+01
	-5.655742242883385e-07
	5.000000000000000e+00
	1.199999483916460e+01
	-4.315079755689669e-04
	-1.196914544350283e-03
	3.137064003736448e-02
	6.849202443103306e-01

 83	4.890634462850345e-07
	1.200000000000000e+01
	1.080311736829664e+01
	-4.397926958681752e-07
	5.000000000000000e+00
	1.199999283929457e+01
	-4.314962989092432e-04
	-1.196954238757714e-03
	3.117368296636853e-02
	6.850370109075675e-01

 84	4.990634462850345e-07
	1.200000000000000e+01
	1.080309862000898e+01
	-5.078850402258772e-07
	5.000000000000000e+00
	1.199999524383417e+01
	-4.314851086310437e-04
	-1.196948941649328e-03
	3.098620008983669e-02
	6.851489136895627e-01

 85	5.090634462850345e-07
	1.200000000000000e+01
	1.080308077381184e+01
	-4.024739630142841e-07
	5.000000000000000e+00
	1.199999358597839e+01
	-4.314742914325283e-04
	-1.196983366404215e-03
	3.080773811842310e-02
	6.852570856747167e-01

 86	5.190634462850345e-07
	1.200000000000000e+01
	1.080306376440008e+01
	-4.574974814984258e-07
	5.000000000000000e+00
	1.199999560929356e+01
	-4.314639160405084e-04
	-1.196980142664362e-03
	3.063764400078544e-02
	6.853608395949167e-01

 87	5.290634462850345e-07
	1.200000000000000e+01
	1.080304755233834e+01
	-3.689993841055268e-07
	5.000000000000000e+00
	1.199999423819523e+01
	-4.314538880250230e-04
	-1.197010065709346e-03
	3.047552338340642e-02
	6.854611197497704e-01

 88	5.390634462850345e-07
	1.200000000000000e+01
	1.080303208265387e+01
	-4.132893819147885e-07
	5.000000000000000e+00
	1.199999594113987e+01
	-4.314442622830560e-04
	-1.197008505947409e-03
	3.032082653874428e-02
	6.855573771694404e-01

 89	5.490634462850346e-07
	1.200000000000000e+01
	1.080301732084287e+01
	-3.388518782799181e-07
	5.000000000000000e+00
	1.199999480993566e+01
	-4.314349599175068e-04
	-1.197034579800547e-03
	3.017320842864556e-02
	6.856504008249321e-01

 90	5.590634462850346e-07
	1.200000000000000e+01
	1.080300322031975e+01
	-3.743397232374480e-07
	5.000000000000000e+00
	1.199999624378423e+01
	-4.314260246323089e-04
	-1.197034341837909e-03
	3.003220319744476e-02
	6.857397536769110e-01

 91	5.690634462850346e-07
	1.200000000000000e+01
	1.080298975074742e+01
	-3.116064966225301e-07
	5.000000000000000e+00
	1.199999531285627e+01
	-4.314173903388586e-04
	-1.197057120689914e-03
	2.989750747415432e-02
	6.858260966114139e-01

 92	5.790634462850346e-07
	1.200000000000000e+01
	1.080297687239778e+01
	-3.398877288695962e-07
	5.000000000000000e+00
	1.199999652076338e+01
	-4.314090916850245e-04
	-1.197057919968421e-03
	2.976872397779393e-02
	6.859090831497551e-01

 93	5.890634462850346e-07
	1.200000000000000e+01
	1.080296455848337e+01
	-2.869099034459828e-07
	5.000000000000000e+00
	1.199999575671195e+01
	-4.314010731640375e-04
	-1.197077874397154e-03
	2.964558483365140e-02
	6.859892683596250e-01

 94	5.990634462850346e-07
	1.200000000000000e+01
	1.080295277492147e+01
	-3.093012818520640e-07
	5.000000000000000e+00
	1.199999677496200e+01
	-4.313933621008190e-04
	-1.197079475458556e-03
	2.952774921466716e-02
	6.860663789918099e-01

 95	6.090634462850346e-07
	1.200000000000000e+01
	1.080294149796987e+01
	-2.644651569723582e-07
	5.000000000000000e+00
	1.199999614969855e+01
	-4.313859117475068e-04
	-1.197097005044631e-03
	2.941497969873714e-02
	6.861408825249320e-01

 96	6.190634462850346e-07
	1.200000000000000e+01
	1.080293069822405e+01
	-2.820522990630001e-07
	5.000000000000000e+00
	1.199999700877297e+01
	-4.313787435124511e-04
	-1.197099214046235e-03
	2.930698224045813e-02
	6.862125648754890e-01

 97	6.290634462850346e-07
	1.200000000000000e+01
	1.080292035457017e+01
	-2.440202807173576e-07
	5.000000000000000e+00
	1.199999649872709e+01
	-4.313718179118455e-04
	-1.197114658158892e-03
	2.920354570164751e-02
	6.862818208815453e-01

 98	6.390634462850346e-07
	1.200000000000000e+01
	1.080291044150480e+01
	-2.576973588567190e-07
	5.000000000000000e+00
	1.199999722421303e+01
	-4.313651515792114e-04
	-1.197117316364860e-03
	2.910441504798078e-02
	6.863484842078861e-01

 99	6.490634462850347e-07
	1.200000000000000e+01
	1.080290094019463e+01
	-2.253595786302109e-07
	5.000000000000000e+00
	1.199999680964497e+01
	-4.313587110669954e-04
	-1.197130963355713e-03
	2.900940194634337e-02
	6.864128893300462e-01

 100	6.590634462850347e-07
	1.200000000000000e+01
	1.080289182840904e+01
	-2.358623400179198e-07
	5.000000000000000e+00
	1.199999742300719e+01
	-4.313525091610770e-04
	-1.197133941519075e-03
	2.891828409038933e-02
	6.864749083892300e-01

 101	6.690634462850347e-07
	1.200000000000000e+01
	1.080288308930247e+01
	-2.082969581122439e-07
	5.000000000000000e+00
	1.199999708741511e+01
	-4.313465174400809e-04
	-1.197146036546392e-03
	2.883089302471725e-02
	6.865348255991912e-01

 102	6.790634462850347e-07
	1.200000000000000e+01
	1.080287470340591e+01
	-2.162301541310896e-07
	5.000000000000000e+00
	1.199999760665075e+01
	-4.313407455953143e-04
	-1.197149230086598e-03
	2.874703405908648e-02
	6.865925440468570e-01

 103	6.890634462850347e-07
	1.200000000000000e+01
	1.080286665561349e+01
	-1.926707382792423e-07
	5.000000000000000e+00
	1.199999733626260e+01
	-4.313351693993021e-04
	-1.197159981760548e-03
	2.866655613485660e-02
	6.866483060069795e-01

 104	6.990634462850347e-07
	1.200000000000000e+01
	1.080285892879941e+01
	-1.985308846172832e-07
	5.000000000000000e+00
	1.199999777645511e+01
	-4.313297960604252e-04
	-1.197163306649543e-03
	2.858928799408328e-02
	6.867020393957484e-01

 105	7.090634462850347e-07
	1.200000000000000e+01
	1.080285150938592e+01
	-1.783395683608525e-07
	5.000000000000000e+00
	1.199999755979537e+01
	-4.313246048582454e-04
	-1.197172892660335e-03
	2.851509385918731e-02
	6.867539514175458e-01

 106	7.190634462850347e-07
	1.200000000000000e+01
	1.080284438224605e+01
	-1.825338135762816e-07
	5.000000000000000e+00
	1.199999793358197e+01
	-4.313196010149089e-04
	-1.197176281934272e-03
	2.844382246053232e-02
	6.868039898509112e-01

 107	7.290634462850347e-07
	1.200000000000000e+01
	1.080283753514876e+01
	-1.651791839364730e-07
	5.000000000000000e+00
	1.199999776110289e+01
	-4.313147667492550e-04
	-1.197184853822325e-03
	2.837535148763961e-02
	6.868523325074499e-01

 108	7.390634462850347e-07
	1.200000000000000e+01
	1.080283095468084e+01
	-1.680409400123045e-07
	5.000000000000000e+00
	1.199999807906898e+01
	-4.313101057003868e-04
	-1.197188254629328e-03
	2.830954680835124e-02
	6.868989429961323e-01

 109	7.490634462850348e-07
	1.200000000000000e+01
	1.080282462980167e+01
	-1.530798023230215e-07
	5.000000000000000e+00
	1.199999794283847e+01
	-4.313056025563586e-04
	-1.197195941813629e-03
	2.824629801665272e-02
	6.869439744364143e-01

 110	7.590634462850348e-07
	1.200000000000000e+01
	1.080281854857453e+01
	-1.548816839984989e-07
	5.000000000000000e+00
	1.199999821384987e+01
	-4.313012597003293e-04
	-1.197199312926747e-03
	2.818548574529545e-02
	6.869874029967076e-01

 111	7.690634462850348e-07
	1.200000000000000e+01
	1.080281270101409e+01
	-1.419440099848854e-07
	5.000000000000000e+00
	1.199999810728727e+01
	-4.312970638997573e-04
	-1.197206226113209e-03
	2.812701014090797e-02
	6.870293610024267e-01

 112	7.790634462850348e-07
	1.200000000000000e+01
	1.080280707646163e+01
	-1.429085398856957e-07
	5.000000000000000e+00
	1.199999833876909e+01
	-4.312930165470040e-04
	-1.197209535847485e-03
	2.807076461627963e-02
	6.870698345299597e-01

 113	7.890634462850348e-07
	1.200000000000000e+01
	1.080280166586968e+01
	-1.316850324701110e-07
	5.000000000000000e+00
	1.199999825642278e+01
	-4.312891061651337e-04
	-1.197215769902542e-03
	2.801665869682427e-02
	6.871089383486635e-01

 114	7.990634462850348e-07
	1.200000000000000e+01
	1.080279645969064e+01
	-1.319934929845363e-07
	5.000000000000000e+00
	1.199999845459440e+01
	-4.312853333704019e-04
	-1.197218994365334e-03
	2.796459690641962e-02
	6.871466662959816e-01

 115	8.090634462850348e-07
	1.200000000000000e+01
	1.080279144971265e+01
	-1.222253047252871e-07
	5.000000000000000e+00
	1.199999839195456e+01
	-4.312816881720530e-04
	-1.197224630741747e-03
	2.791449712646051e-02
	6.871831182794701e-01

 116	8.190634462850348e-07
	1.200000000000000e+01
	1.080278662735817e+01
	-1.220250534302204e-07
	5.000000000000000e+00
	1.199999856202591e+01
	-4.312781705838291e-04
	-1.197227752382730e-03
	2.786627358173660e-02
	6.872182941617091e-01

 117	8.290634462850348e-07
	1.200000000000000e+01
	1.080278198516156e+01
	-1.134952793646126e-07
	5.000000000000000e+00
	1.199999851536742e+01
	-4.312747718765782e-04
	-1.197232861164263e-03
	2.781985161561814e-02
	6.872522812342177e-01

 118	8.390634462850348e-07
	1.200000000000000e+01
	1.080277751539566e+01
	-1.129057918134557e-07
	5.000000000000000e+00
	1.199999866170414e+01
	-4.312714916016414e-04
	-1.197235867562922e-03
	2.777515395662141e-02
	6.872850839835860e-01

 119	8.490634462850349e-07
	1.200000000000000e+01
	1.080277321126264e+01
	-1.054324251848413e-07
	5.000000000000000e+00
	1.199999862795467e+01
	-4.312683221039328e-04
	-1.197240509190667e-03
	2.773211262642748e-02
	6.873167789606719e-01

 120	8.590634462850349e-07
	1.200000000000000e+01
	1.080276906578363e+01
	-1.045502838335857e-07
	5.000000000000000e+00
	1.199999875421634e+01
	-4.312652625852351e-04
	-1.197243392053023e-03
	2.769065783625639e-02
	6.873473741476488e-01

 121	8.690634462850349e-07
	1.200000000000000e+01
	1.080276507275973e+01
	-9.798037950987279e-08
	5.000000000000000e+00
	1.199999873084609e+01
	-4.312623063076260e-04
	-1.197247618779420e-03
	2.765072759726675e-02
	6.873769369237400e-01

 122	8.790634462850349e-07
	1.200000000000000e+01
	1.080276122587288e+01
	-9.688339027282070e-08
	5.000000000000000e+00
	1.199999884010191e+01
	-4.312594522139651e-04
	-1.197250373108066e-03
	2.761225872876840e-02
	6.874054778603490e-01

 123	8.890634462850349e-07
	1.200000000000000e+01
	1.080275751946244e+01
	-9.108822537775337e-08
	5.000000000000000e+00
	1.199999882503150e+01
	-4.312566943519589e-04
	-1.197254230222558e-03
	2.757519462438970e-02
	6.874330564804106e-01

 124	8.990634462850349e-07
	1.200000000000000e+01
	1.080275394779591e+01
	-8.983881270713343e-08
	5.000000000000000e+00
	1.199999891985691e+01
	-4.312540314781050e-04
	-1.197256853635023e-03
	2.753947795912014e-02
	6.874596852189506e-01

 125	9.090634462850349e-07
	1.200000000000000e+01