Title: * simulation of motor
Date: Mon Nov 10 23:06:50  2008
Plotname: Transient Analysis
Flags: real
No. Variables: 14
No. Points: 1008
Variables:
	0	time	time
	1	v(1)	voltage
	2	v(2)	voltage
	3	v(3)	voltage
	4	v(4)	voltage
	5	v(5)	voltage
	6	v(6)	voltage
	7	v(7)	voltage
	8	in	voltage
	9	out	voltage
	10	t1:4	voltage
	11	v1#branch	current
	12	v2#branch	current
	13	v_motor#branch	current
Values:
 0	0.000000000000000e+00
	4.023028074875369e-01
	1.997211176322300e-01
	6.610473761862919e-01
	2.400000000000000e+01
	2.006705046791459e+01
	2.400000000000000e+01
	4.468162893899408e+00
	5.000000000000000e+00
	2.569717450177444e+00
	8.767729016163728e-01
	-3.932949532085409e-03
	-8.100245782372006e-05
	-2.143028254982255e-01

 1	1.000000000000000e-09
	4.023012683283321e-01
	1.997205992871169e-01
	6.610472638387460e-01
	2.400000000000000e+01
	2.006705021138805e+01
	2.400000000000000e+01
	4.468162893809356e+00
	5.000000000000000e+00
	2.569716142183395e+00
	8.767717127218817e-01
	-3.932949788611946e-03
	-8.100246021208735e-05
	-2.143028385781660e-01

 2	2.000000000000000e-09
	4.023013797989761e-01
	1.997205726704287e-01
	6.610473826148896e-01
	2.400000000000000e+01
	2.006705022996650e+01
	2.400000000000000e+01
	4.468162893859554e+00
	5.000000000000000e+00
	2.569716218316208e+00
	8.767718297685652e-01
	-3.932949770033503e-03
	-8.100245768605241e-05
	-2.143028378168379e-01

 3	4.000000000000000e-09
	4.023016978459297e-01
	1.997205646582974e-01
	6.610474068310169e-01
	2.400000000000000e+01
	2.006705028297432e+01
	2.400000000000000e+01
	4.468162893897734e+00
	5.000000000000000e+00
	2.569716454512336e+00
	8.767720735567551e-01
	-3.932949717025679e-03
	-8.100245717168608e-05
	-2.143028354548766e-01

 4	8.000000000000000e-09
	4.023020664173054e-01
	1.997205709699537e-01
	6.610473705737119e-01
	2.400000000000000e+01
	2.006705034440288e+01
	2.400000000000000e+01
	4.468162893922235e+00
	5.000000000000000e+00
	2.569716751065303e+00
	8.767722402410846e-01
	-3.932949655597117e-03
	-8.100245794362415e-05
	-2.143028324893470e-01

 5	1.600000000000000e-08
	4.023021787787344e-01
	1.997205830183860e-01
	6.610473622358031e-01
	2.400000000000000e+01
	2.006705036312979e+01
	2.400000000000000e+01
	4.468162893895420e+00
	5.000000000000000e+00
	2.569716855278591e+00
	8.767722634222406e-01
	-3.932949636870213e-03
	-8.100245812042717e-05
	-2.143028314472141e-01

 6	3.200000000000000e-08
	4.023022024621248e-01
	1.997206217360877e-01
	6.610472890482634e-01
	2.400000000000000e+01
	2.006705036707702e+01
	2.400000000000000e+01
	4.468162893639168e+00
	5.000000000000000e+00
	2.569716877017333e+00
	8.767723124263450e-01
	-3.932949632922980e-03
	-8.100245967213038e-05
	-2.143028312298267e-01

 7	6.400000000000000e-08
	4.023022833311772e-01
	1.997206800628476e-01
	6.610472105209154e-01
	2.400000000000000e+01
	2.006705038055519e+01
	2.400000000000000e+01
	4.468162892967243e+00
	5.000000000000000e+00
	2.569716956188603e+00
	8.767723776153690e-01
	-3.932949619444805e-03
	-8.100246132858313e-05
	-2.143028304381140e-01

 8	1.280000000000000e-07
	4.023024053502317e-01
	1.997207867011426e-01
	6.610470309597316e-01
	2.400000000000000e+01
	2.006705040089171e+01
	2.400000000000000e+01
	4.468162891755065e+00
	5.000000000000000e+00
	2.569717068702297e+00
	8.767725095299658e-01
	-3.932949599108294e-03
	-8.100246512326992e-05
	-2.143028293129770e-01

 9	2.280000000000000e-07
	4.023025448672861e-01
	1.997208981547834e-01
	6.610468692780479e-01
	2.400000000000000e+01
	2.006705042414455e+01
	2.400000000000000e+01
	4.468162890417493e+00
	5.000000000000000e+00
	2.569717203414357e+00
	8.767726374659498e-01
	-3.932949575855453e-03
	-8.100246853492976e-05
	-2.143028279658564e-01

 10	3.280000000000000e-07
	4.023026369016637e-01
	1.997209776051291e-01
	6.610467322951866e-01
	2.400000000000000e+01
	2.006705043948361e+01
	2.400000000000000e+01
	4.468162889526828e+00
	5.000000000000000e+00
	2.569717287493033e+00
	8.767727372478267e-01
	-3.932949560516387e-03
	-8.100247143039141e-05
	-2.143028271250697e-01

 11	4.280000000000000e-07
	4.023026951053677e-01
	1.997210235001599e-01
	6.610466731363209e-01
	2.400000000000000e+01
	2.006705044918423e+01
	2.400000000000000e+01
	4.468162888953425e+00
	5.000000000000000e+00
	2.569717345435854e+00
	8.767727868142994e-01
	-3.932949550815770e-03
	-8.100247267689431e-05
	-2.143028265456415e-01

 12	5.280000000000001e-07
	4.023027370430278e-01
	1.997210597999278e-01
	6.610466037208360e-01
	2.400000000000000e+01
	2.006705045617384e+01
	2.400000000000000e+01
	4.468162888567113e+00
	5.000000000000000e+00
	2.569717382101458e+00
	8.767728353272600e-01
	-3.932949543826162e-03
	-8.100247414571937e-05
	-2.143028261789854e-01

 13	6.280000000000001e-07
	4.023027594262190e-01
	1.997210774992473e-01
	6.610465886164283e-01
	2.400000000000000e+01
	2.006705045990437e+01
	2.400000000000000e+01
	4.468162888322957e+00
	5.000000000000000e+00
	2.569717406250416e+00
	8.767728511253773e-01
	-3.932949540095631e-03
	-8.100247446185538e-05
	-2.143028259374958e-01

 14	7.280000000000001e-07
	4.023027805117037e-01
	1.997210951802980e-01
	6.610465483986242e-01
	2.400000000000000e+01
	2.006705046341862e+01
	2.400000000000000e+01
	4.468162888153781e+00
	5.000000000000000e+00
	2.569717423159806e+00
	8.767728775686454e-01
	-3.932949536581382e-03
	-8.100247531389604e-05
	-2.143028257684019e-01

 15	8.280000000000001e-07
	4.023027868189563e-01
	1.997211007710225e-01
	6.610465521678683e-01
	2.400000000000000e+01
	2.006705046446983e+01
	2.400000000000000e+01
	4.468162888051447e+00
	5.000000000000000e+00
	2.569717432156421e+00
	8.767728788222443e-01
	-3.932949535530174e-03
	-8.100247523157300e-05
	-2.143028256784358e-01

 16	9.280000000000001e-07
	4.023027995080106e-01
	1.997211104011240e-01
	6.610465246230099e-01
	2.400000000000000e+01
	2.006705046658467e+01
	2.400000000000000e+01
	4.468162887975778e+00
	5.000000000000000e+00
	2.569717441098638e+00
	8.767728957561961e-01
	-3.932949533415333e-03
	-8.100247581604991e-05
	-2.143028255890136e-01

 17	1.028000000000000e-06
	4.023027983679818e-01
	1.997211108085553e-01
	6.610465364217692e-01
	2.400000000000000e+01
	2.006705046639467e+01
	2.400000000000000e+01
	4.468162887934512e+00
	5.000000000000000e+00
	2.569717443081184e+00
	8.767728907569348e-01
	-3.932949533605335e-03
	-8.100247556408480e-05
	-2.143028255691881e-01

 18	1.128000000000000e-06
	4.023028079110657e-01
	1.997211169412682e-01
	6.610465144330290e-01
	2.400000000000000e+01
	2.006705046798518e+01
	2.400000000000000e+01
	4.468162887899132e+00
	5.000000000000000e+00
	2.569717449033372e+00
	8.767729035794637e-01
	-3.932949532014824e-03
	-8.100247603115562e-05
	-2.143028255096663e-01

 19	1.228000000000000e-06
	4.023028031427717e-01
	1.997211151455841e-01
	6.610465295915319e-01
	2.400000000000000e+01
	2.006705046719046e+01
	2.400000000000000e+01
	4.468162887884139e+00
	5.000000000000000e+00
	2.569717447597253e+00
	8.767728959082199e-01
	-3.932949532809538e-03
	-8.100247570835828e-05
	-2.143028255240275e-01

 20	1.328000000000000e-06
	4.023028117076892e-01
	1.997211197440046e-01
	6.610465100935874e-01
	2.400000000000000e+01
	2.006705046861795e+01
	2.400000000000000e+01
	4.468162887866137e+00
	5.000000000000000e+00
	2.569717452620693e+00
	8.767729069351456e-01
	-3.932949531382050e-03
	-8.100247612286005e-05
	-2.143028254737931e-01

 21	1.428000000000001e-06
	4.023028050403924e-01
	1.997211170267523e-01
	6.610465266012149e-01
	2.400000000000000e+01
	2.006705046750673e+01
	2.400000000000000e+01
	4.468162887862434e+00
	5.000000000000000e+00
	2.569717449388822e+00
	8.767728981418310e-01
	-3.932949532493268e-03
	-8.100247577147446e-05
	-2.143028255061118e-01

 22	1.528000000000001e-06
	4.023028134840964e-01
	1.997211209380314e-01
	6.610465082734627e-01
	2.400000000000000e+01
	2.006705046891402e+01
	2.400000000000000e+01
	4.468162887851943e+00
	5.000000000000000e+00
	2.569717454303615e+00
	8.767729083636356e-01
	-3.932949531085985e-03
	-8.100247616121825e-05
	-2.143028254569638e-01

 23	1.628000000000001e-06
	4.023028057319524e-01
	1.997211178495164e-01
	6.610465252648631e-01
	2.400000000000000e+01
	2.006705046762199e+01
	2.400000000000000e+01
	4.468162887853070e+00
	5.000000000000000e+00
	2.569717450036237e+00
	8.767728991217140e-01
	-3.932949532378007e-03
	-8.100247579972963e-05
	-2.143028254996376e-01

 24	1.728000000000001e-06
	4.023028143605624e-01
	1.997211214399497e-01
	6.610465075380110e-01
	2.400000000000000e+01
	2.006705046906009e+01
	2.400000000000000e+01
	4.468162887845844e+00
	5.000000000000000e+00
	2.569717455139918e+00
	8.767729089597138e-01
	-3.932949530939908e-03
	-8.100247617676137e-05
	-2.143028254486008e-01

 25	1.828000000000001e-06
	4.023028059312307e-01
	1.997211182158380e-01
	6.610465246411132e-01
	2.400000000000000e+01
	2.006705046765520e+01
	2.400000000000000e+01
	4.468162887849024e+00
	5.000000000000000e+00
	2.569717450214951e+00
	8.767728995638148e-01
	-3.932949532344797e-03
	-8.100247581288578e-05
	-2.143028254978505e-01

 26	1.928000000000001e-06
	4.023028148248741e-01
	1.997211216443967e-01
	6.610465072693610e-01
	2.400000000000000e+01
	2.006705046913748e+01
	2.400000000000000e+01
	4.468162887843231e+00
	5.000000000000000e+00
	2.569717455589793e+00
	8.767729091954517e-01
	-3.932949530862523e-03
	-8.100247618236800e-05
	-2.143028254441021e-01

 27	2.028000000000001e-06
	4.023028059407924e-01
	1.997211183850510e-01
	6.610465243245817e-01
	2.400000000000000e+01
	2.006705046765680e+01
	2.400000000000000e+01
	4.468162887847265e+00
	5.000000000000000e+00
	2.569717450211630e+00
	8.767728997759296e-01
	-3.932949532343201e-03
	-8.100247581965814e-05
	-2.143028254978837e-01

 28	2.128000000000001e-06
	4.023028150914930e-01
	1.997211217212383e-01
	6.610465072013989e-01
	2.400000000000000e+01
	2.006705046918191e+01
	2.400000000000000e+01
	4.468162887842119e+00
	5.000000000000000e+00
	2.569717455855270e+00
	8.767729092746220e-01
	-3.932949530818085e-03
	-8.100247618386680e-05
	-2.143028254414473e-01

 29	2.228000000000001e-06
	4.023028058869549e-01
	1.997211184689049e-01
	6.610465241407122e-01
	2.400000000000000e+01
	2.006705046764782e+01
	2.400000000000000e+01
	4.468162887846495e+00
	5.000000000000000e+00
	2.569717450146237e+00
	8.767728998901763e-01
	-3.932949532352175e-03
	-8.100247582354392e-05
	-2.143028254985376e-01

 30	2.328000000000000e-06
	4.023028152563702e-01
	1.997211217435521e-01
	6.610465072195034e-01
	2.400000000000000e+01
	2.006705046920939e+01
	2.400000000000000e+01
	4.468162887841656e+00
	5.000000000000000e+00
	2.569717456026494e+00
	8.767729092853501e-01
	-3.932949530790605e-03
	-8.100247618342271e-05
	-2.143028254397351e-01

 31	2.428000000000000e-06
	4.023028058208644e-01
	1.997211185156016e-01
	6.610465240143416e-01
	2.400000000000000e+01
	2.006705046763681e+01
	2.400000000000000e+01
	4.468162887846150e+00
	5.000000000000000e+00
	2.569717450067592e+00
	8.767728999631335e-01
	-3.932949532363189e-03
	-8.100247582620845e-05
	-2.143028254993241e-01

 32	2.528000000000000e-06
	4.023028153637965e-01
	1.997211217427506e-01
	6.610465072742947e-01
	2.400000000000000e+01
	2.006705046922730e+01
	2.400000000000000e+01
	4.468162887841469e+00
	5.000000000000000e+00
	2.569717456144885e+00
	8.767729092658818e-01
	-3.932949530772699e-03
	-8.100247618225698e-05
	-2.143028254385511e-01

 33	2.628000000000000e-06
	4.023028057618667e-01
	1.997211185459576e-01
	6.610465239131170e-01
	2.400000000000000e+01
	2.006705046762698e+01
	2.400000000000000e+01
	4.468162887845986e+00
	5.000000000000000e+00
	2.569717449994370e+00
	8.767729000189108e-01
	-3.932949532373023e-03
	-8.100247582842890e-05
	-2.143028255000563e-01

 34	2.728000000000000e-06
	4.023028154352653e-01
	1.997211217323151e-01
	6.610465073444983e-01
	2.400000000000000e+01
	2.006705046923921e+01
	2.400000000000000e+01
	4.468162887841403e+00
	5.000000000000000e+00
	2.569717456230411e+00
	8.767729092329215e-01
	-3.932949530760791e-03
	-8.100247618075818e-05
	-2.143028254376959e-01

 35	2.828000000000000e-06
	4.023028057160796e-01
	1.997211185689716e-01
	6.610465238231138e-01
	2.400000000000000e+01
	2.006705046761935e+01
	2.400000000000000e+01
	4.468162887845905e+00
	5.000000000000000e+00
	2.569717449932665e+00
	8.767729000676758e-01
	-3.932949532380654e-03
	-8.100247583026077e-05
	-2.143028255006733e-01

 36	2.928000000000000e-06
	4.023028154820404e-01
	1.997211217180101e-01
	6.610465074209433e-01
	2.400000000000000e+01
	2.006705046924701e+01
	2.400000000000000e+01
	4.468162887841387e+00
	5.000000000000000e+00
	2.569717456293434e+00
	8.767729091938441e-01
	-3.932949530752993e-03
	-8.100247617914835e-05
	-2.143028254370656e-01

 37	3.028000000000000e-06
	4.023028056843361e-01
	1.997211185885714e-01
	6.610465237383426e-01
	2.400000000000000e+01
	2.006705046761406e+01
	2.400000000000000e+01
	4.468162887845855e+00
	5.000000000000000e+00
	2.569717449883523e+00
	8.767729001136634e-01
	-3.932949532385944e-03
	-8.100247583209264e-05
	-2.143028255011648e-01

 38	3.128000000000000e-06
	4.023028155106183e-01
	1.997211217022860e-01
	6.610465074996711e-01
	2.400000000000000e+01
	2.006705046925177e+01
	2.400000000000000e+01
	4.468162887841392e+00
	5.000000000000000e+00
	2.569717456339860e+00
	8.767729091519677e-01
	-3.932949530748232e-03
	-8.100247617753853e-05
	-2.143028254366014e-01

 39	3.227999999999999e-06
	4.023028056654944e-01
	1.997211186064723e-01
	6.610465236562320e-01
	2.400000000000000e+01
	2.006705046761092e+01
	2.400000000000000e+01
	4.468162887845823e+00
	5.000000000000000e+00
	2.569717449846072e+00
	8.767729001585678e-01
	-3.932949532389085e-03
	-8.100247583375797e-05
	-2.143028255015393e-01

 40	3.327999999999999e-06
	4.023028155251491e-01
	1.997211216861678e-01
	6.610465075789740e-01
	2.400000000000000e+01
	2.006705046925419e+01
	2.400000000000000e+01
	4.468162887841409e+00
	5.000000000000000e+00
	2.569717456373431e+00
	8.767729091088258e-01
	-3.932949530745809e-03
	-8.100247617581768e-05
	-2.143028254362657e-01

 41	3.427999999999999e-06
	4.023028056578283e-01
	1.997211186234251e-01
	6.610465235756747e-01
	2.400000000000000e+01
	2.006705046760964e+01
	2.400000000000000e+01
	4.468162887845795e+00
	5.000000000000000e+00
	2.569717449818837e+00
	8.767729002030056e-01
	-3.932949532390363e-03
	-8.100247583547882e-05
	-2.143028255018116e-01

 42	3.527999999999999e-06
	4.023028155285352e-01
	1.997211216700715e-01
	6.610465076581147e-01
	2.400000000000000e+01
	2.006705046925476e+01
	2.400000000000000e+01
	4.468162887841425e+00
	5.000000000000000e+00
	2.569717456396737e+00
	8.767729090651620e-01
	-3.932949530745244e-03
	-8.100247617415235e-05
	-2.143028254360326e-01

 43	3.627999999999999e-06
	4.023028056595886e-01
	1.997211186397899e-01
	6.610465234962061e-01
	2.400000000000000e+01
	2.006705046760993e+01
	2.400000000000000e+01
	4.468162887845771e+00
	5.000000000000000e+00
	2.569717449800307e+00
	8.767729002471877e-01
	-3.932949532390068e-03
	-8.100247583719966e-05
	-2.143028255019969e-01

 44	3.727999999999999e-06
	4.023028155229447e-01
	1.997211216541549e-01
	6.610465077367723e-01
	2.400000000000000e+01
	2.006705046925383e+01
	2.400000000000000e+01
	4.468162887841449e+00
	5.000000000000000e+00
	2.569717456411708e+00
	8.767729090213578e-01
	-3.932949530746175e-03
	-8.100247617237599e-05
	-2.143028254358829e-01

 45	3.827999999999999e-06
	4.023028056691819e-01
	1.997211186557349e-01
	6.610465234176151e-01
	2.400000000000000e+01
	2.006705046761153e+01
	2.400000000000000e+01
	4.468162887845748e+00
	5.000000000000000e+00
	2.569717449789078e+00
	8.767729002911442e-01
	-3.932949532388470e-03
	-8.100247583886500e-05
	-2.143028255021092e-01

 46	3.927999999999999e-06
	4.023028155100803e-01
	1.997211216384797e-01
	6.610465078148043e-01
	2.400000000000000e+01
	2.006705046925168e+01
	2.400000000000000e+01
	4.468162887841467e+00
	5.000000000000000e+00
	2.569717456419861e+00
	8.767729089776376e-01
	-3.932949530748321e-03
	-8.100247617082168e-05
	-2.143028254358014e-01

 47	4.027999999999999e-06
	4.023028056852388e-01
	1.997211186713539e-01
	6.610465233398206e-01
	2.400000000000000e+01
	2.006705046761421e+01
	2.400000000000000e+01
	4.468162887845724e+00
	5.000000000000000e+00
	2.569717449783946e+00
	8.767729003348547e-01
	-3.932949532385795e-03
	-8.100247584058584e-05
	-2.143028255021605e-01

 48	4.127999999999998e-06
	4.023028154912943e-01
	1.997211216230532e-01
	6.610465078921528e-01
	2.400000000000000e+01
	2.006705046924855e+01
	2.400000000000000e+01
	4.468162887841491e+00
	5.000000000000000e+00
	2.569717456422396e+00
	8.767729089341252e-01
	-3.932949530751450e-03
	-8.100247616910083e-05
	-2.143028254357760e-01

 49	4.227999999999998e-06
	4.023028057065997e-01
	1.997211186866875e-01
	6.610465232627806e-01
	2.400000000000000e+01
	2.006705046761777e+01
	2.400000000000000e+01
	4.468162887845703e+00
	5.000000000000000e+00
	2.569717449783879e+00
	8.767729003782649e-01
	-3.932949532382235e-03
	-8.100247584219566e-05
	-2.143028255021612e-01

 50	4.327999999999998e-06
	4.023028154676895e-01
	1.997211216078704e-01
	6.610465079687884e-01
	2.400000000000000e+01
	2.006705046924462e+01
	2.400000000000000e+01
	4.468162887841511e+00
	5.000000000000000e+00
	2.569717456420295e+00
	8.767729088909065e-01
	-3.932949530755384e-03
	-8.100247616749101e-05
	-2.143028254357970e-01

 51	4.427999999999998e-06
	4.023028057322746e-01
	1.997211187017635e-01
	6.610465231864838e-01
	2.400000000000000e+01
	2.006705046762205e+01
	2.400000000000000e+01
	4.468162887845681e+00
	5.000000000000000e+00
	2.569717449787995e+00
	8.767729004213272e-01
	-3.932949532377954e-03
	-8.100247584380549e-05
	-2.143028255021200e-01

 52	4.527999999999998e-06
	4.023028154401669e-01
	1.997211215929182e-01
	6.610465080447060e-01
	2.400000000000000e+01
	2.006705046924003e+01
	2.400000000000000e+01
	4.468162887841532e+00
	5.000000000000000e+00
	2.569717456414363e+00
	8.767729088480359e-01
	-3.932949530759974e-03
	-8.100247616588119e-05
	-2.143028254358564e-01

 53	4.627999999999998e-06
	4.023028057614769e-01
	1.997211187166182e-01
	6.610465231109167e-01
	2.400000000000000e+01
	2.006705046762691e+01
	2.400000000000000e+01
	4.468162887845661e+00
	5.000000000000000e+00
	2.569717449795597e+00
	8.767729004640245e-01
	-3.932949532373086e-03
	-8.100247584541531e-05
	-2.143028255020440e-01

 54	4.727999999999998e-06
	4.023028154094697e-01
	1.997211215781745e-01
	6.610465081198983e-01
	2.400000000000000e+01
	2.006705046923491e+01
	2.400000000000000e+01
	4.468162887841554e+00
	5.000000000000000e+00
	2.569717456405258e+00
	8.767729088055388e-01
	-3.932949530765090e-03
	-8.100247616427136e-05
	-2.143028254359474e-01

 55	4.827999999999998e-06
	4.023028057935341e-01
	1.997211187312590e-01
	6.610465230360770e-01
	2.400000000000000e+01
	2.006705046763226e+01
	2.400000000000000e+01
	4.468162887845641e+00
	5.000000000000000e+00
	2.569717449806079e+00
	8.767729005063216e-01
	-3.932949532367743e-03
	-8.100247584696962e-05
	-2.143028255019392e-01

 56	4.927999999999998e-06
	4.023028153762097e-01
	1.997211215636428e-01
	6.610465081943692e-01
	2.400000000000000e+01
	2.006705046922937e+01
	2.400000000000000e+01
	4.468162887841573e+00
	5.000000000000000e+00
	2.569717456393539e+00
	8.767729087634584e-01
	-3.932949530770632e-03
	-8.100247616271705e-05
	-2.143028254360646e-01

 57	5.027999999999997e-06
	4.023028058278812e-01
	1.997211187456989e-01
	6.610465229619643e-01
	2.400000000000000e+01
	2.006705046763798e+01
	2.400000000000000e+01
	4.468162887845621e+00
	5.000000000000000e+00
	2.569717449818937e+00
	8.767729005481988e-01
	-3.932949532362020e-03
	-8.100247584857945e-05
	-2.143028255018106e-01

 58	5.127999999999997e-06
	4.023028153408886e-01
	1.997211215492976e-01
	6.610465082681241e-01
	2.400000000000000e+01
	2.006705046922348e+01
	2.400000000000000e+01
	4.468162887841595e+00
	5.000000000000000e+00
	2.569717456379647e+00
	8.767729087217935e-01
	-3.932949530776519e-03
	-8.100247616116274e-05
	-2.143028254362035e-01

 59	5.227999999999997e-06
	4.023028058640645e-01
	1.997211187599463e-01
	6.610465228885697e-01
	2.400000000000000e+01
	2.006705046764401e+01
	2.400000000000000e+01
	4.468162887845599e+00
	5.000000000000000e+00
	2.569717449833757e+00
	8.767729005896415e-01
	-3.932949532355987e-03
	-8.100247585018927e-05
	-2.143028255016624e-01

 60	5.327999999999997e-06
	4.023028153039310e-01
	1.997211215351309e-01
	6.610465083411619e-01
	2.400000000000000e+01
	2.006705046921732e+01
	2.400000000000000e+01
	4.468162887841616e+00
	5.000000000000000e+00
	2.569717456363970e+00
	8.767729086805565e-01
	-3.932949530782679e-03
	-8.100247615955292e-05
	-2.143028254363603e-01

 61	5.427999999999997e-06
	4.023028059017078e-01
	1.997211187740200e-01
	6.610465228158900e-01
	2.400000000000000e+01
	2.006705046765028e+01
	2.400000000000000e+01
	4.468162887845580e+00
	5.000000000000000e+00
	2.569717449850205e+00
	8.767729006306554e-01
	-3.932949532349717e-03
	-8.100247585168807e-05
	-2.143028255014979e-01

 62	5.527999999999997e-06
	4.023028152656823e-01
	1.997211215211495e-01
	6.610465084134889e-01
	2.400000000000000e+01
	2.006705046921095e+01
	2.400000000000000e+01
	4.468162887841635e+00
	5.000000000000000e+00
	2.569717456346827e+00
	8.767729086397693e-01
	-3.932949530789052e-03
	-8.100247615805412e-05
	-2.143028254365317e-01

 63	5.627999999999997e-06
	4.023028059404907e-01
	1.997211187879206e-01
	6.610465227439228e-01
	2.400000000000000e+01
	2.006705046765675e+01
	2.400000000000000e+01
	4.468162887845560e+00
	5.000000000000000e+00
	2.569717449867986e+00
	8.767729006712272e-01
	-3.932949532343251e-03
	-8.100247585324238e-05
	-2.143028255013201e-01

 64	5.727999999999997e-06
	4.023028152264221e-01
	1.997211215073296e-01
	6.610465084851059e-01
	2.400000000000000e+01
	2.006705046920440e+01
	2.400000000000000e+01
	4.468162887841654e+00
	5.000000000000000e+00
	2.569717456328464e+00
	8.767729085994141e-01
	-3.932949530795597e-03
	-8.100247615655531e-05
	-2.143028254367154e-01

 65	5.827999999999997e-06
	4.023028059801599e-01
	1.997211188016605e-01
	6.610465226726561e-01
	2.400000000000000e+01
	2.006705046766336e+01
	2.400000000000000e+01
	4.468162887845541e+00
	5.000000000000000e+00
	2.569717449886869e+00
	8.767729007113645e-01
	-3.932949532336640e-03
	-8.100247585468567e-05
	-2.143028255011313e-01

 66	5.927999999999996e-06
	4.023028151864013e-01
	1.997211214936723e-01
	6.610465085560209e-01
	2.400000000000000e+01
	2.006705046919773e+01
	2.400000000000000e+01
	4.468162887841674e+00
	5.000000000000000e+00
	2.569717456309115e+00
	8.767729085594991e-01
	-3.932949530802265e-03
	-8.100247615500100e-05
	-2.143028254369088e-01

 67	6.027999999999996e-06
	4.023028060204911e-01
	1.997211188152355e-01
	6.610465226020908e-01
	2.400000000000000e+01
	2.006705046767008e+01
	2.400000000000000e+01
	4.468162887845522e+00
	5.000000000000000e+00
	2.569717449906646e+00
	8.767729007510570e-01
	-3.932949532329918e-03
	-8.100247585623999e-05
	-2.143028255009335e-01

 68	6.127999999999996e-06
	4.023028151458025e-01
	1.997211214801705e-01
	6.610465086262395e-01
	2.400000000000000e+01
	2.006705046919097e+01
	2.400000000000000e+01
	4.468162887841694e+00
	5.000000000000000e+00
	2.569717456288948e+00
	8.767729085200191e-01
	-3.932949530809033e-03
	-8.100247615355771e-05
	-2.143028254371105e-01

 69	6.227999999999996e-06
	4.023028060613060e-01
	1.997211188286598e-01
	6.610465225322196e-01
	2.400000000000000e+01
	2.006705046767689e+01
	2.400000000000000e+01
	4.468162887845502e+00
	5.000000000000000e+00
	2.569717449927154e+00
	8.767729007903192e-01
	-3.932949532323114e-03
	-8.100247585779430e-05
	-2.143028255007285e-01

 70	6.327999999999996e-06
	4.023028151048034e-01
	1.997211214668242e-01
	6.610465086957655e-01
	2.400000000000000e+01
	2.006705046918414e+01
	2.400000000000000e+01
	4.468162887841711e+00
	5.000000000000000e+00
	2.569717456268129e+00
	8.767729084809758e-01
	-3.932949530815865e-03
	-8.100247615211442e-05
	-2.143028254373187e-01

 71	6.427999999999996e-06
	4.023028061024553e-01
	1.997211188419338e-01
	6.610465224630396e-01
	2.400000000000000e+01
	2.006705046768374e+01
	2.400000000000000e+01
	4.468162887845482e+00
	5.000000000000000e+00
	2.569717449948254e+00
	8.767729008291507e-01
	-3.932949532316258e-03
	-8.100247585929310e-05
	-2.143028255005175e-01

 72	6.527999999999996e-06
	4.023028150635336e-01
	1.997211214536197e-01
	6.610465087646074e-01
	2.400000000000000e+01
	2.006705046917726e+01
	2.400000000000000e+01
	4.468162887841731e+00
	5.000000000000000e+00
	2.569717456246776e+00
	8.767729084423522e-01
	-3.932949530822743e-03
	-8.100247615056011e-05
	-2.143028254375322e-01

 73	6.627999999999996e-06
	4.023028061438237e-01
	1.997211188550639e-01
	6.610465223945403e-01
	2.400000000000000e+01
	2.006705046769064e+01
	2.400000000000000e+01
	4.468162887845463e+00
	5.000000000000000e+00
	2.569717449969837e+00
	8.767729008675608e-01
	-3.932949532309362e-03
	-8.100247586073639e-05
	-2.143028255003016e-01

 74	6.727999999999996e-06
	4.023028150221005e-01
	1.997211214405648e-01
	6.610465088327666e-01
	2.400000000000000e+01
	2.006705046917035e+01
	2.400000000000000e+01
	4.468162887841750e+00
	5.000000000000000e+00
	2.569717456224995e+00
	8.767729084041566e-01
	-3.932949530829649e-03
	-8.100247614917233e-05
	-2.143028254377500e-01

 75	6.827999999999995e-06
	4.023028061852945e-01
	1.997211188680488e-01
	6.610465223267188e-01
	2.400000000000000e+01
	2.006705046769755e+01
	2.400000000000000e+01
	4.468162887845446e+00
	5.000000000000000e+00
	2.569717449991791e+00
	8.767729009055484e-01
	-3.932949532302452e-03
	-8.100247586212417e-05
	-2.143028255000821e-01

 76	6.927999999999995e-06
	4.023028149806016e-01
	1.997211214276460e-01
	6.610465089002520e-01
	2.400000000000000e+01
	2.006705046916343e+01
	2.400000000000000e+01
	4.468162887841769e+00
	5.000000000000000e+00
	2.569717456202875e+00
	8.767729083663703e-01
	-3.932949530836566e-03
	-8.100247614767353e-05
	-2.143028254379712e-01

 77	7.027999999999995e-06
	4.023028062267981e-01
	1.997211188808966e-01
	6.610465222595668e-01
	2.400000000000000e+01
	2.006705046770447e+01
	2.400000000000000e+01
	4.468162887845427e+00
	5.000000000000000e+00
	2.569717450014051e+00
	8.767729009431272e-01
	-3.932949532295535e-03
	-8.100247586356746e-05
	-2.143028254998595e-01

 78	7.127999999999995e-06
	4.023028149391150e-01
	1.997211214148681e-01
	6.610465089670692e-01
	2.400000000000000e+01
	2.006705046915652e+01
	2.400000000000000e+01
	4.468162887841787e+00
	5.000000000000000e+00
	2.569717456180496e+00
	8.767729083289977e-01
	-3.932949530843480e-03
	-8.100247614623024e-05
	-2.143028254381950e-01

 79	7.227999999999995e-06
	4.023028062682542e-01
	1.997211188936103e-01
	6.610465221930825e-01
	2.400000000000000e+01
	2.006705046771138e+01
	2.400000000000000e+01
	4.468162887845409e+00
	5.000000000000000e+00
	2.569717450036541e+00
	8.767729009803021e-01
	-3.932949532288624e-03
	-8.100247586495524e-05
	-2.143028254996346e-01

 80	7.327999999999995e-06
	4.023028148977018e-01
	1.997211214022219e-01
	6.610465090332250e-01
	2.400000000000000e+01
	2.006705046914962e+01
	2.400000000000000e+01
	4.468162887841805e+00
	5.000000000000000e+00
	2.569717456157912e+00
	8.767729082920231e-01
	-3.932949530850383e-03
	-8.100247614489797e-05
	-2.143028254384209e-01

 81	7.427999999999995e-06
	4.023028063096056e-01
	1.997211189061841e-01
	6.610465221272571e-01
	2.400000000000000e+01
	2.006705046771827e+01
	2.400000000000000e+01
	4.468162887845390e+00
	5.000000000000000e+00
	2.569717450059198e+00
	8.767729010170712e-01
	-3.932949532281732e-03
	-8.100247586634302e-05
	-2.143028254994080e-01

 82	7.527999999999995e-06
	4.023028148564222e-01
	1.997211213897117e-01
	6.610465090987243e-01
	2.400000000000000e+01
	2.006705046914274e+01
	2.400000000000000e+01
	4.468162887841824e+00
	5.000000000000000e+00
	2.569717456135188e+00
	8.767729082554490e-01
	-3.932949530857265e-03
	-8.100247614345468e-05
	-2.143028254386481e-01

 83	7.627999999999995e-06
	4.023028063508080e-01
	1.997211189186308e-01
	6.610465220620850e-01
	2.400000000000000e+01
	2.006705046772514e+01
	2.400000000000000e+01
	4.468162887845374e+00
	5.000000000000000e+00
	2.569717450081984e+00
	8.767729010534516e-01
	-3.932949532274865e-03
	-8.100247586773079e-05
	-2.143028254991801e-01

 84	7.727999999999994e-06
	4.023028148153124e-01
	1.997211213773309e-01
	6.610465091635717e-01
	2.400000000000000e+01
	2.006705046913589e+01
	2.400000000000000e+01
	4.468162887841841e+00
	5.000000000000000e+00
	2.569717456112357e+00
	8.767729082192639e-01
	-3.932949530864115e-03
	-8.100247614206690e-05
	-2.143028254388764e-01

 85	7.827999999999995e-06
	4.023028063918184e-01
	1.997211189309493e-01
	6.610465219975570e-01
	2.400000000000000e+01
	2.006705046773197e+01
	2.400000000000000e+01
	4.468162887845355e+00
	5.000000000000000e+00
	2.569717450104852e+00
	8.767729010894465e-01
	-3.932949532268030e-03
	-8.100247586911857e-05
	-2.143028254989515e-01

 86	7.927999999999996e-06
	4.023028147744090e-01
	1.997211213650771e-01
	6.610465092277730e-01
	2.400000000000000e+01
	2.006705046912907e+01
	2.400000000000000e+01
	4.468162887841857e+00
	5.000000000000000e+00
	2.569717456089459e+00
	8.767729081834614e-01
	-3.932949530870932e-03
	-8.100247614073464e-05
	-2.143028254391054e-01

 87	8.027999999999997e-06
	4.023028064326115e-01
	1.997211189431384e-01
	6.610465219336705e-01
	2.400000000000000e+01
	2.006705046773877e+01
	2.400000000000000e+01
	4.468162887845337e+00
	5.000000000000000e+00
	2.569717450127774e+00
	8.767729011250576e-01
	-3.932949532261233e-03
	-8.100247587039533e-05
	-2.143028254987223e-01

 88	8.127999999999997e-06
	4.023028147337427e-01
	1.997211213529497e-01
	6.610465092913391e-01
	2.400000000000000e+01
	2.006705046912229e+01
	2.400000000000000e+01
	4.468162887841873e+00
	5.000000000000000e+00
	2.569717456066525e+00
	8.767729081480365e-01
	-3.932949530877711e-03
	-8.100247613940237e-05
	-2.143028254393347e-01

 89	8.227999999999998e-06
	4.023028064731496e-01
	1.997211189552040e-01
	6.610465218704216e-01
	2.400000000000000e+01
	2.006705046774552e+01
	2.400000000000000e+01
	4.468162887845322e+00
	5.000000000000000e+00
	2.569717450150714e+00
	8.767729011602964e-01
	-3.932949532254476e-03
	-8.100247587172760e-05
	-2.143028254984929e-01
