Title: * simulation of motor
Date: Tue Nov 11 22:29:00  2008
Plotname: Transient Analysis
Flags: real
No. Variables: 12
No. Points: 1226
Variables:
	0	time	time
	1	v(1)	voltage
	2	v(2)	voltage
	3	v(3)	voltage
	4	in	voltage
	5	out	voltage
	6	t1:4	voltage
	7	v1#branch	current
	8	v2#branch	current
	9	v_motor#branch	current
	10	vbase	voltage
	11	vbasebc	voltage
Values:
 0	0.000000000000000e+00
	1.212914266175150e-02
	1.200000000000000e+01
	1.200000000000000e+01
	0.000000000000000e+00
	3.909502042405743e-01
	6.700668994365201e-01
	-5.360742930054288e-03
	2.327606179937343e-12
	-1.160904979575943e-01
	1.278514139891424e+00
	2.327606179937343e-09

 1	1.000000000000000e-10
	1.212919766571628e-02
	1.200000000000000e+01
	1.200000000000000e+01
	0.000000000000000e+00
	3.909407056782508e-01
	6.700607025198564e-01
	-5.360746217323841e-03
	-2.932079554449703e-09
	-1.160905929432175e-01
	1.278507565352319e+00
	-2.932079554449703e-06

 2	2.000000000000000e-10
	1.212917363469265e-02
	1.200000000000000e+01
	1.200000000000000e+01
	0.000000000000000e+00
	3.909395353394718e-01
	6.700605062494994e-01
	-5.360746758075099e-03
	-2.430528576315573e-09
	-1.160906046466053e-01
	1.278506483849802e+00
	-2.430528576315572e-06

 3	4.000000000000000e-10
	1.212915918072066e-02
	1.200000000000000e+01
	1.200000000000000e+01
	0.000000000000000e+00
	3.909379771792666e-01
	6.700607436351530e-01
	-5.360747595888221e-03
	-2.203861420898039e-09
	-1.160906202282073e-01
	1.278504808223558e+00
	-2.203861420898038e-06

 4	8.000000000000000e-10
	1.212916240327603e-02
	1.200000000000000e+01
	1.200000000000000e+01
	0.000000000000000e+00
	3.909362022452711e-01
	6.700617123071425e-01
	-5.360748531645941e-03
	-2.667987018763196e-09
	-1.160906379775473e-01
	1.278502936708118e+00
	-2.667987018763196e-06

 5	1.600000000000000e-09
	1.212915808335512e-02
	1.200000000000000e+01
	1.200000000000000e+01
	0.000000000000000e+00
	3.909345703437143e-01
	6.700630044482985e-01
	-5.360749209315142e-03
	-2.719564141881578e-09
	-1.160906542965629e-01
	1.278501581369716e+00
	-2.719564141881578e-06

 6	3.023781282481799e-09
	1.212915825390415e-02
	1.200000000000000e+01
	1.200000000000000e+01
	0.000000000000000e+00
	3.909356276270013e-01
	6.700644941551627e-01
	-5.360748925670301e-03
	-2.572396210189063e-09
	-1.160906437237300e-01
	1.278502148659397e+00
	-2.572396210189063e-06

 7	5.871343847445397e-09
	1.212914925134558e-02
	1.200000000000000e+01
	1.200000000000000e+01
	0.000000000000000e+00
	3.909412051994165e-01
	6.700655440624893e-01
	-5.360746837425707e-03
	-1.413262869689037e-09
	-1.160905879480058e-01
	1.278506325148586e+00
	-1.413262869689037e-06

 8	1.000000000000000e-08
	1.212914672114236e-02
	1.200000000000000e+01
	1.200000000000000e+01
	0.000000000000000e+00
	3.909471027599810e-01
	6.700658820222241e-01
	-5.360744571751996e-03
	-4.495778661251990e-10
	-1.160905289724002e-01
	1.278510856496008e+00
	-4.495778661251990e-07

 9	1.000925271654436e-08
	1.212936337643060e-02
	1.200000000000000e+01
	1.200000000000000e+01
	4.626358272177414e-03
	3.909514796831949e-01
	6.700700167093604e-01
	-5.360742021069553e-03
	-4.617949062086738e-06
	-1.160904852031680e-01
	1.278515957860894e+00
	8.409210090648349e-06

 10	1.002775814963306e-08
	1.212982389053315e-02
	1.200000000000000e+01
	1.200000000000000e+01
	1.387907481653142e-02
	3.909608657608281e-01
	6.700787788001921e-01
	-5.360735934171412e-03
	-1.384721891809095e-05
	-1.160903913423917e-01
	1.278528131657176e+00
	3.185589844077557e-05

 11	1.006476901581048e-08
	1.213054914101490e-02
	1.200000000000000e+01
	1.200000000000000e+01
	3.238450790523942e-02
	3.909761388007877e-01
	6.700923961688758e-01
	-5.360722528459052e-03
	-3.228542007744855e-05
	-1.160902386119921e-01
	1.278554943081897e+00
	9.908782779065566e-05

 12	1.012469186402992e-08
	1.213135400940939e-02
	1.200000000000000e+01
	1.200000000000000e+01
	6.234593201496209e-02
	3.909942165375016e-01
	6.701070470339142e-01
	-5.360700013472170e-03
	-6.209852860205351e-05
	-1.160900578346250e-01
	1.278599973055661e+00
	2.474034129079473e-04

 13	1.021545422654184e-08
	1.213237297307846e-02
	1.200000000000000e+01
	1.200000000000000e+01
	1.077271132709192e-01
	3.910186094290572e-01
	6.701248560973094e-01
	-5.360664381259417e-03
	-1.071832431515513e-04
	-1.160898139057094e-01
	1.278671237481164e+00
	5.438701193685854e-04

 14	1.033175038054740e-08
	1.213360726844170e-02
	1.200000000000000e+01
	1.200000000000000e+01
	1.658751902736997e-01
	3.910496546550045e-01
	6.701454879099679e-01
	-5.360617628405544e-03
	-1.648408231768593e-04
	-1.160895034534500e-01
	1.278764743188911e+00
	1.034367096843877e-03

 15	1.056434268855852e-08
	1.213610367880205e-02
	1.200000000000000e+01
	1.200000000000000e+01
	2.821713442792599e-01
	3.911151516721610e-01
	6.701847796674902e-01
	-5.360521106077428e-03
	-2.797898763933576e-04
	-1.160888484832784e-01
	1.278957787845144e+00
	2.381467885905830e-03

 16	1.102952730458076e-08
	1.214105139924730e-02
	1.200000000000000e+01
	1.200000000000000e+01
	5.147636522903811e-01
	3.912504024361694e-01
	6.702537721161623e-01
	-5.360321925148105e-03
	-5.082381143148413e-04
	-1.160874959756383e-01
	1.279356149703790e+00
	6.525537975539336e-03

 17	1.195989653662525e-08
	1.215082112871845e-02
	1.200000000000000e+01
	1.200000000000000e+01
	9.799482683126236e-01
	3.915037565682194e-01
	6.703629260405017e-01
	-5.359917685431675e-03
	-9.594436092140097e-04
	-1.160849624343178e-01
	1.280164629136650e+00
	2.050465909862438e-02

 18	1.382063500071422e-08
	1.216933435865791e-02
	1.200000000000000e+01
	1.200000000000000e+01
	1.910317500357108e+00
	3.917962837889162e-01
	6.705020827441568e-01
	-5.359166481892086e-03
	-1.840464639284547e-03
	-1.160820371621108e-01
	1.281667036215827e+00
	6.985286107256600e-02

 19	1.754211192889215e-08
	1.219859829386936e-02
	1.200000000000000e+01
	1.200000000000000e+01
	3.771055964446075e+00
	3.913646369654046e-01
	6.705959238516896e-01
	-5.358143040543893e-03
	-3.534204659305381e-03
	-1.160863536303459e-01
	1.283713918912215e+00
	2.368513051406987e-01

 20	2.000000000000000e-08
	1.219708328965353e-02
	1.200000000000000e+01
	1.200000000000000e+01
	5.000000000000000e+00
	3.901845683579951e-01
	6.703897723618749e-01
	-5.358349716148235e-03
	-4.631530975922470e-03
	-1.160981543164200e-01
	1.283300567703529e+00
	3.684690240775193e-01

 21	2.035976607539382e-08
	1.219296112481056e-02
	1.200000000000000e+01
	1.200000000000000e+01
	5.000000000000000e+00
	3.899123437346824e-01
	6.703124665314110e-01
	-5.358529235305737e-03
	-4.614421088219234e-03
	-1.161008765626532e-01
	1.282941529388527e+00
	3.855789117807809e-01

 22	2.107929822618146e-08
	1.218469043602027e-02
	1.200000000000000e+01
	1.200000000000000e+01
	5.000000000000000e+00
	3.893738111712365e-01
	6.701751801167556e-01
	-5.358915161787403e-03
	-4.582743058216342e-03
	-1.161062618882876e-01
	1.282169676425195e+00
	4.172569417836731e-01

 23	2.251836252775674e-08
	1.217825696206361e-02
	1.200000000000000e+01
	1.200000000000000e+01
	5.000000000000000e+00
	3.886728205713404e-01
	6.701344356421312e-01
	-5.359359397635167e-03
	-4.527327281786418e-03
	-1.161132717942866e-01
	1.281281204729667e+00
	4.726727182136014e-01

 24	2.539649113090729e-08
	1.214484862264045e-02
	1.200000000000000e+01
	1.200000000000000e+01
	5.000000000000000e+00
	3.875052270819805e-01
	6.698033386909316e-01
	-5.360689233211750e-03
	-4.437043828416650e-03
	-1.161249477291802e-01
	1.278621533576500e+00
	5.629561715833666e-01

 25	2.968871335865228e-08
	1.158952968021289e-02
	1.200000000000000e+01
	1.200000000000000e+01
	5.000000000000000e+00
	3.766406309944612e-01
	6.637480780377064e-01
	-5.382274130719440e-03
	-4.353202204339250e-03
	-1.162335936900554e-01
	1.235451738561120e+00
	6.467977956607602e-01

 26	3.357233968580086e-08
	1.034572021924288e-02
	1.200000000000000e+01
	1.200000000000000e+01
	5.000000000000000e+00
	3.534704226160957e-01
	6.528988533488042e-01
	-5.437642451844831e-03
	-4.322115609803904e-03
	-1.164652957738390e-01
	1.124715096310338e+00
	6.778843901960998e-01

 27	3.774355029425533e-08
	8.715505487077627e-03
	1.200000000000000e+01
	1.200000000000000e+01
	5.000000000000000e+00
	4.281934095240019e-01
	6.431399390755054e-01
	-5.521016298447905e-03
	-4.304494417460951e-03
	-1.157180659047600e-01
	9.579674031041889e-01
	6.955055825390641e-01

 28	4.170887539314722e-08
	6.909473784357662e-03
	1.200000000000000e+01
	1.200000000000000e+01
	5.000000000000000e+00
	8.373761147079186e-01
	6.318308308926852e-01
	-5.616132195606505e-03
	-4.294156079086152e-03
	-1.116262388529208e-01
	7.677356087869891e-01
	7.058439209138622e-01

 29	4.633251130067114e-08
	4.457517799349916e-03
	1.200000000000000e+01
	1.200000000000000e+01
	5.000000000000000e+00
	1.904893906720498e+00
	6.148573744723219e-01
	-5.750777082691210e-03
	-4.286295350875403e-03
	-1.009510609327950e-01
	4.984458346175795e-01
	7.137046491246080e-01

 30	4.811804712524787e-08
	3.394643698974102e-03
	1.200000000000000e+01
	1.200000000000000e+01
	5.000000000000000e+00
	2.513039548683599e+00
	6.064709557856899e-01
	-5.807426820093461e-03
	-4.283922224685679e-03
	-9.486960451316399e-02
	3.851463598130786e-01
	7.160777753143300e-01

 31	4.927553967291878e-08
	2.717615781984387e-03
	1.200000000000000e+01
	1.200000000000000e+01
	5.000000000000000e+00
	2.967092271439681e+00
	6.009184031395581e-01
	-5.846182118701985e-03
	-4.283075292459955e-03
	-9.032907728560317e-02
	3.076357625960303e-01
	7.169247075400562e-01

 32	4.982057543817885e-08
	2.424537299469660e-03
	1.200000000000000e+01
	1.200000000000000e+01
	5.000000000000000e+00
	3.198009992976971e+00
	5.985279070839588e-01
	-5.861999328504300e-03
	-4.281231142091318e-03
	-8.801990007023029e-02
	2.760013429914014e-01
	7.187688579086935e-01

 33	5.024753425378992e-08
	2.258930454721092e-03
	1.200000000000000e+01
	1.200000000000000e+01
	5.000000000000000e+00
	3.387400807045592e+00
	5.976461507581479e-01
	-5.873147708296026e-03
	-4.280932014901161e-03
	-8.612599192954408e-02
	2.537045834079469e-01
	7.190679850988348e-01

 34	5.071380202393487e-08
	2.089056697734981e-03
	1.200000000000000e+01
	1.200000000000000e+01
	5.000000000000000e+00
	3.601574285428150e+00
	5.965829378042042e-01
	-5.882897020457741e-03
	-4.279579312949418e-03
	-8.398425714571849e-02
	2.342059590845180e-01
	7.204206870506037e-01

 35	5.140013083879355e-08
	1.924735258883020e-03
	1.200000000000000e+01
	1.200000000000000e+01
	5.000000000000000e+00
	3.929587602992095e+00
	5.960374497791023e-01
	-5.893973432248061e-03
	-4.279022264162881e-03
	-8.070412397007905e-02
	2.120531355038776e-01
	7.209777358371030e-01

 36	5.238941057634785e-08
	1.699208234117949e-03
	1.200000000000000e+01
	1.200000000000000e+01
	5.000000000000000e+00
	4.417614179665897e+00
	5.943165563308211e-01
	-5.905107973819794e-03
	-4.278761732783343e-03
	-7.582385820334103e-02
	1.897840523604108e-01
	7.212382672166747e-01

 37	5.349023492187715e-08
	1.494687775504497e-03
	1.200000000000000e+01
	1.200000000000000e+01
	5.000000000000000e+00
	4.968546606978665e+00
	5.921112612421534e-01
	-5.913895861256019e-03
	-4.279703994209799e-03
	-7.031453393021334e-02
	1.722082774879609e-01
	7.202960057902046e-01

 38	5.472765633062442e-08
	1.252629435621250e-03
	1.200000000000000e+01
	1.200000000000000e+01
	5.000000000000000e+00
	5.579945267297604e+00
	5.883753216996880e-01
	-5.921201318468216e-03
	-4.281026233220775e-03
	-6.420054732702396e-02
	1.575973630635682e-01
	7.189737667792215e-01

 39	5.636928500540526e-08
	9.898920715752486e-04
	1.200000000000000e+01
	1.200000000000000e+01
	5.000000000000000e+00
	6.358737728347458e+00
	5.833234055730278e-01
	-5.928788308494333e-03
	-4.283453142123557e-03
	-5.641262271652542e-02
	1.424233830113332e-01
	7.165468578764540e-01

 40	5.894892280559528e-08
	6.303703033105778e-04
	1.200000000000000e+01
	1.200000000000000e+01
	5.000000000000000e+00
	7.471976066630792e+00
	5.741944367042384e-01
	-5.938070428108446e-03
	-4.287563318857899e-03
	-4.528023933369207e-02
	1.238591437831080e-01
	7.124366811421016e-01

 41	6.274770778870303e-08
	3.102068435545706e-04
	1.200000000000000e+01
	1.200000000000000e+01
	5.000000000000000e+00
	8.823148038088046e+00
	5.611753766555767e-01
	-5.948940619683383e-03
	-4.294362935851065e-03
	-3.176851961911953e-02
	1.021187606332331e-01
	7.056370641489568e-01

 42	6.883458711880015e-08
	8.094781818666860e-05
	1.200000000000000e+01
	1.200000000000000e+01
	5.000000000000000e+00
	1.030086230513100e+01
	5.420872119540348e-01
	-5.962313681443713e-03
	-4.305289207827065e-03
	-1.699137694868998e-02
	7.537263711257583e-02
	6.947107921729361e-01

 43	7.693153322922091e-08
	4.359905673634202e-05
	1.200000000000000e+01
	1.200000000000000e+01
	5.000000000000000e+00
	1.130565271432079e+01
	5.241578244648950e-01
	-5.974612897485324e-03
	-4.317495590415867e-03
	-6.943472856792116e-03
	5.077420502935358e-02
	6.825044095841369e-01

 44	8.592934559634070e-08
	3.475514132715591e-05
	1.200000000000000e+01
	1.200000000000000e+01
	5.000000000000000e+00
	1.173624719774133e+01
	5.111877444669067e-01
	-5.982240526241604e-03
	-4.324969004068412e-03
	-2.637528022586679e-03
	3.551894751679306e-02
	6.750309959316049e-01

 45	9.584017683642274e-08
	4.413629594873586e-05
	1.200000000000000e+01
	1.200000000000000e+01
	5.000000000000000e+00
	1.189384371507523e+01
	5.017686031407615e-01
	-5.986411547269288e-03
	-4.327946975880390e-03
	-1.061562849247643e-03
	2.717690546142533e-02
	6.720530241196310e-01

 46	1.058401768364227e-07
	2.746258082337473e-05
	1.200000000000000e+01
	1.200000000000000e+01
	5.000000000000000e+00
	1.194479013196896e+01
	4.936693050521418e-01
	-5.988604243134984e-03
	-4.328402657427680e-03
	-5.520986803103442e-04
	2.279151373003276e-02
	6.715973425723304e-01

 47	1.158401768364227e-07
	3.219262199207965e-05
	1.200000000000000e+01
	1.200000000000000e+01
	5.000000000000000e+00
	1.196497725378726e+01
	4.866637368754517e-01
	-5.990105880421812e-03
	-4.328238380637361e-03
	-3.502274621274212e-04
	1.978823915637627e-02
	6.717616193626497e-01

 48	1.258401768364227e-07
	1.632965972093188e-05
	1.200000000000000e+01
	1.200000000000000e+01
	5.000000000000000e+00
	1.197495290123716e+01
	4.795558633897183e-01
	-5.991230348274614e-03
	-4.327793153569432e-03
	-2.504709876283437e-04
	1.753930345077231e-02
	6.722068464305780e-01

 49	1.358401768364228e-07
	2.331754599389141e-05
	1.200000000000000e+01
	1.200000000000000e+01
	5.000000000000000e+00
	1.198149330185909e+01
	4.730687356514829e-01
	-5.992214776884570e-03
	-4.327418600635114e-03
	-1.850669814090652e-04
	1.557044623086088e-02
	6.725813993648966e-01

 50	1.458401768364228e-07
	9.650919585997084e-06
	1.200000000000000e+01
	1.200000000000000e+01
	5.000000000000000e+00
	1.198573914290112e+01
	4.663335844803900e-01
	-5.993004250316299e-03
	-4.326947821224099e-03
	-1.426085709888378e-04
	1.399149936740204e-02
	6.730521787759108e-01

 51	1.558401768364228e-07
	1.818272200959014e-05
	1.200000000000000e+01
	1.200000000000000e+01
	5.000000000000000e+00
	1.198915549261094e+01
	4.601499414683264e-01
	-5.993744473374663e-03
	-4.326591061889896e-03
	-1.084450738905682e-04
	1.251105325067458e-02
	6.734089381101140e-01

 52	1.658401768364228e-07
	5.851779246962693e-06
	1.200000000000000e+01
	1.200000000000000e+01
	5.000000000000000e+00
	1.199139221966859e+01
	4.536848142532006e-01
	-5.994344540099313e-03
	-4.326161677134632e-03
	-8.607780331409048e-05
	1.131091980137456e-02
	6.738383228653784e-01

 53	1.758401768364228e-07
	1.522391958284895e-05
	1.200000000000000e+01
	1.200000000000000e+01
	5.000000000000000e+00
	1.199340393989292e+01
	4.477434227241264e-01
	-5.994928834259497e-03
	-4.325839745467354e-03
	-6.596060107081331e-05
	1.014233148100481e-02
	6.741602545326565e-01

 54	1.858401768364228e-07
	3.667125520427116e-06
	1.200000000000000e+01
	1.200000000000000e+01
	5.000000000000000e+00
	1.199462202471859e+01
	4.415048126923226e-01
	-5.995400287824856e-03
	-4.325452207722377e-03
	-5.377975281413344e-05
	9.199424350289422e-03
	6.745477922776336e-01

 55	1.958401768364228e-07
	1.347038665305801e-05
	1.200000000000000e+01
	1.200000000000000e+01
	5.000000000000000e+00
	1.199587718366944e+01
	4.357714432798376e-01
	-5.995875212828065e-03
	-4.325164014284324e-03
	-4.122816330563967e-05
	8.249574343869869e-03
	6.748359857156866e-01

 56	2.058401768364228e-07
	2.386149577868963e-06
	1.200000000000000e+01
	1.200000000000000e+01
	5.000000000000000e+00
	1.199653146276646e+01
	4.297316907643540e-01
	-5.996254024716311e-03
	-4.324814645110099e-03
	-3.468537233543872e-05
	7.491950567378730e-03
	6.751853548899120e-01

 57	2.158401768364228e-07
	1.239547856359662e-05
	1.200000000000000e+01
	1.200000000000000e+01
	5.000000000000000e+00
	1.199735814470464e+01
	4.241833249652067e-01
	-5.996648533325334e-03
	-4.324557090480945e-03
	-2.641855295357959e-05
	6.702933349332529e-03
	6.754429095190650e-01

 58	2.258401768364228e-07
	1.619320414503505e-06
	1.200000000000000e+01
	1.200000000000000e+01
	5.000000000000000e+00
	1.199768951747158e+01
	4.183231189831789e-01
	-5.996958032197773e-03
	-4.324241900093688e-03
	-2.310482528416119e-05
	6.083935604453172e-03
	6.757580999063225e-01

 59	2.358401768364229e-07
	1.170958139852787e-05
	1.200000000000000e+01
	1.200000000000000e+01
	5.000000000000000e+00
	1.199826638480781e+01
	4.129433048164126e-01
	-5.997291385918250e-03
	-4.324011680375682e-03
	-1.733615192191368e-05
	5.417228163501556e-03
	6.759883196243288e-01

 60	2.458401768364228e-07
	1.149356480588493e-06
	1.200000000000000e+01
	1.200000000000000e+01
	5.000000000000000e+00
	1.199840839865561e+01
	4.072485206687095e-01
	-5.997547503181207e-03
	-4.323726922274645e-03
	-1.591601344386379e-05
	4.904993637584732e-03
	6.762730777253660e-01

 61	2.558401768364229e-07
	1.124990316740660e-05
	1.200000000000000e+01
	1.200000000000000e+01
	5.000000000000000e+00
	1.199883604336268e+01
	4.020250112642409e-01
	-5.997833112424388e-03
	-4.323520941744422e-03
	-1.163956637316249e-05
	4.333775151224585e-03
	6.764790582555888e-01

 62	2.658401768364229e-07
	8.527604974519086e-07
	1.200000000000000e+01
	1.200000000000000e+01
	5.000000000000000e+00
	1.199886483657878e+01
	3.964849306106463e-01
	-5.998047159824434e-03
	-4.323263247727371e-03
	-1.135163421215085e-05
	3.905680351130791e-03
	6.767367522726401e-01

 63	2.758401768364229e-07
	1.092322537989621e-05
	1.200000000000000e+01
	1.200000000000000e+01
	5.000000000000000e+00
	1.199920130461188e+01
	3.914082883051876e-01
	-5.998294696803803e-03
	-4.323078729725888e-03
	-7.986953881193584e-06
	3.410606392394980e-03
	6.769212702741217e-01

 64	2.858401768364229e-07
	6.582174362646424e-07
	1.200000000000000e+01
	1.200000000000000e+01
	5.000000000000000e+00
	1.199916127282486e+01
	3.860145066949477e-01
	-5.998474961452715e-03
	-4.322845124732248e-03
	-8.387271751388590e-06
	3.050077094568971e-03
	6.771548752677632e-01

 65	2.958401768364229e-07
	1.067536551442590e-05
	1.200000000000000e+01
	1.200000000000000e+01
	5.000000000000000e+00
	1.199944076540255e+01
	3.810772257992550e-01
	-5.998691604671500e-03
	-4.322679622770237e-03
	-5.592345974456403e-06
	2.616790656999561e-03
	6.773203772297742e-01

 66	3.058401768364229e-07
	5.240102471666829e-07
	1.200000000000000e+01
	1.200000000000000e+01
	5.000000000000000e+00
	1.199935830611602e+01
	3.758229504438242e-01
	-5.998844316452130e-03
	-4.322467496857903e-03
	-6.416938839823586e-06
	2.311367095741391e-03
	6.775325031421074e-01

 67	3.158401768364229e-07
	1.047445566973317e-05
	1.200000000000000e+01
	1.200000000000000e+01
	5.000000000000000e+00
	1.199960135406122e+01
	3.710188841359748e-01
	-5.999035521596838e-03
	-4.322318870516601e-03
	-3.986459387778915e-06
	1.928956806325629e-03
	6.776811294834097e-01

 68	3.258401768364229e-07
	4.254874370656234e-07
	1.200000000000000e+01
	1.200000000000000e+01
	5.000000000000000e+00
	1.199949244262457e+01
	3.658984676355511e-01
	-5.999165466211399e-03
	-4.322125937778983e-03
	-5.075573754275977e-06
	1.669067577201789e-03
	6.778740622210271e-01

 69	3.358401768364229e-07
	1.030158419668158e-05
	1.200000000000000e+01
	1.200000000000000e+01
	5.000000000000000e+00
	1.199971158470576e+01
	3.612224427655526e-01
	-5.999335463515761e-03
	-4.321992318075996e-03
	-2.884152942350396e-06
	1.329072968477941e-03
	6.780076819240139e-01

 70	3.458401768364229e-07
	3.479754571048443e-07
	1.200000000000000e+01
	1.200000000000000e+01
	5.000000000000000e+00
	1.199958604908326e+01
	3.562310658140451e-01
	-5.999446385457078e-03
	-4.321816574520921e-03
	-4.139509167402077e-06
	1.107229085844766e-03
	6.781834254790893e-01

 71	3.558401768364230e-07
	1.014546132833345e-05
	1.200000000000000e+01
	1.200000000000000e+01
	5.000000000000000e+00
	1.199978906966547e+01
	3.516786183059775e-01
	-5.999598511665839e-03
	-4.321696328489204e-03
	-2.109303345260995e-06
	8.029766683216823e-04
	6.783036715108073e-01

 72	3.658401768364230e-07
	2.827041484942428e-07
	1.200000000000000e+01
	1.200000000000000e+01
	5.000000000000000e+00
	1.199965305108552e+01
	3.468120695894576e-01
	-5.999693387451143e-03
	-4.321536013399271e-03
	-3.469489144809215e-06
	6.132250977142753e-04
	6.784639866007391e-01

 73	3.758401768364230e-07
	9.999330626620031e-06
	1.200000000000000e+01
	1.200000000000000e+01
	5.000000000000000e+00
	1.199984486075548e+01
	3.423792595236038e-01
	-5.999830313870551e-03
	-4.321427711544775e-03
	-1.551392445222342e-06
	3.393722588976363e-04
	6.785722884552350e-01

 74	3.858401768364230e-07
	2.244307220267844e-07
	1.200000000000000e+01
	1.200000000000000e+01
	5.000000000000000e+00
	1.199970225519063e+01
	3.376337806723581e-01
	-5.999911542308062e-03
	-4.321281273651790e-03
	-2.977448093723634e-06
	1.769153838749005e-04
	6.787187263482206e-01

 75	3.958401768364230e-07
	9.859156352270862e-06
	1.200000000000000e+01
	1.200000000000000e+01
	5.000000000000000e+00
	1.199988600141876e+01
	3.333170612323652e-01
	-6.000035435412956e-03
	-4.321183661400160e-03
	-1.139985812372567e-06
	-7.087082591312662e-05
	6.788163385998505e-01

 76	4.058401768364230e-07
	1.700368106298616e-07
	1.200000000000000e+01
	1.200000000000000e+01
	5.000000000000000e+00
	1.199973931746857e+01
	3.286892362122937e-01
	-6.000104973190544e-03
	-4.321049729901328e-03
	-2.606825314270533e-06
	-2.099463810868829e-04
	6.789502700986826e-01

 77	4.158401768364230e-07
	9.722547024127323e-06
	1.200000000000000e+01
	1.200000000000000e+01
	5.000000000000000e+00
	1.199991705051489e+01
	3.244853597257822e-01
	-6.000217610209900e-03
	-4.320961703082971e-03
	-8.294948510931282e-07
	-4.352204198009341e-04
	6.790382969170393e-01

 78	4.258401768364230e-07
	1.176909823696452e-07
	1.200000000000000e+01
	1.200000000000000e+01
	5.000000000000000e+00
	1.199976792746319e+01
	3.199720350979257e-01
	-6.000277070491691e-03
	-4.320839063036929e-03
	-2.320725368100964e-06
	-5.541409833806939e-04
	6.791609369630817e-01

 79	4.358401768364230e-07
	9.588109545398853e-06
	1.200000000000000e+01
	1.200000000000000e+01
	5.000000000000000e+00
	1.199994100529939e+01
	3.158779850125297e-01
	-6.000379924192695e-03
	-4.320759647051316e-03
	-5.899470061018774e-07
	-7.598483853884633e-04
	6.792403529486944e-01

 80	4.458401768364230e-07
	6.634401921217440e-08
	1.200000000000000e+01
	1.200000000000000e+01
	5.000000000000000e+00
	1.199979053024857e+01
	3.114762119315636e-01
	-6.000430649607069e-03
	-4.320647218558149e-03
	-2.094697514334056e-06
	-8.612992141368385e-04
	6.793527814418611e-01

 81	4.558401768364231e-07
	9.455058219475290e-06
	1.200000000000000e+01
	1.200000000000000e+01
	5.000000000000000e+00
	1.199995986805387e+01
	3.074891531577977e-01
	-6.000524951544794e-03
	-4.320575550735474e-03
	-4.013194613358689e-07
	-1.049903089587891e-03
	6.794244492645365e-01

 82	4.658401768364231e-07
	1.542226330094473e-08
	1.200000000000000e+01
	1.200000000000000e+01
	5.000000000000000e+00
	1.199980877260686e+01
	3.031961448608750e-01
	-6.000568069079022e-03
	-4.320472371313396e-03
	-1.912273931392318e-06
	-1.136138158044851e-03
	6.795276286866142e-01

 83	4.758401768364231e-07
	9.322976284932678e-06
	1.200000000000000e+01
	1.200000000000000e+01
	5.000000000000000e+00
	1.199997499849049e+01
	2.993133872635984e-01
	-6.000654857497983e-03
	-4.320407685990576e-03
	-2.500150950554539e-07
	-1.309714995967395e-03
	6.795923140094349e-01

 84	4.858401768364230e-07
	-3.535995301495438e-08
	1.200000000000000e+01
	1.200000000000000e+01
	5.000000000000000e+00
	1.199982378227470e+01
	2.951264877066188e-01
	-6.000691320376061e-03
	-4.320312895626539e-03
	-1.762177252981615e-06
	-1.382640752122845e-03
	6.796871043734717e-01

 85	4.958401768364230e-07
	9.191669607336717e-06
	1.200000000000000e+01
	1.200000000000000e+01
	5.000000000000000e+00
	1.199998733566765e+01
	2.913454590974463e-01
	-6.000771476982998e-03
	-4.320254511501392e-03
	-1.266433234833910e-07
	-1.542953965995841e-03
	6.797454884986186e-01

 86	5.058401768364231e-07
	-8.611561890192802e-08
	1.200000000000000e+01
	1.200000000000000e+01
	5.000000000000000e+00
	1.199983634485961e+01
	2.872621196832502e-01
	-6.000802097025161e-03
	-4.320167339928849e-03
	-1.636551403933760e-06
	-1.604194050321751e-03
	6.798326600711614e-01

 87	5.158401768364231e-07
	9.061076533110805e-06
	1.200000000000000e+01
	1.200000000000000e+01
	5.000000000000000e+00
	1.199999753945259e+01
	2.835803457338475e-01
	-6.000876375566285e-03
	-4.320114649316053e-03
	-2.460547407795742e-08
	-1.752751132570867e-03
	6.798853506839577e-01

 88	5.258401768364231e-07
	-1.368561655990145e-07
	1.200000000000000e+01
	1.200000000000000e+01
	5.000000000000000e+00
	1.199984701731780e+01
	2.795981079576177e-01
	-6.000901848485907e-03
	-4.320034405147256e-03
	-1.529826821961841e-06
	-1.803696971813387e-03
	6.799655948527548e-01

 89	5.358401768364231e-07
	8.931212228738367e-06
	1.200000000000000e+01
	1.200000000000000e+01
	5.000000000000000e+00
	1.200000608180894e+01
	2.760131971892917e-01
	-6.000970897204019e-03
	-4.319986864820253e-03
	6.081808943375730e-08
	-1.941794408037097e-03
	6.800131351797571e-01

 90	5.458401768364231e-07
	-1.875353660133050e-07
	1.200000000000000e+01
	1.200000000000000e+01
	5.000000000000000e+00
	1.199985620161561e+01
	2.721296796388822e-01
	-6.000991822594042e-03
	-4.319912926225459e-03
	-1.437983843903536e-06
	-1.983645188083349e-03
	6.800870737745521e-01

 91	5.558401768364231e-07
	8.802134333721438e-06
	1.200000000000000e+01
	1.200000000000000e+01
	5.000000000000000e+00
	1.200001330641074e+01
	2.686393121580297e-01
	-6.001056202056564e-03
	-4.319870049581543e-03
	1.330641074551167e-07
	-2.112404113126132e-03
	6.801299504184679e-01

 92	5.658401768364231e-07
	-2.380763705706675e-07
	1.200000000000000e+01
	1.200000000000000e+01
	5.000000000000000e+00
	1.199986419313079e+01
	2.648522007369765e-01
	-6.001073099334311e-03
	-4.319801856262117e-03
	-1.358068692074167e-06
	-2.146198668620838e-03
	6.801981437378934e-01

 93	5.758401768364231e-07
	8.673921853942968e-06
	1.200000000000000e+01
	1.200000000000000e+01
	5.000000000000000e+00
	1.200001946805331e+01
	2.614541197484977e-01
	-6.001133296719349e-03
	-4.319763206594205e-03
	1.946805331234911e-07
	-2.266593438698622e-03
	6.802367934058050e-01

 94	5.858401768364231e-07
	-2.883882466745812e-07
	1.200000000000000e+01
	1.200000000000000e+01
	5.000000000000000e+00
	1.199987121284225e+01
	2.577611602947926e-01
	-6.001146617961250e-03
	-4.319700252842073e-03
	-1.287871577517478e-06
	-2.293235922500348e-03
	6.802997471579375e-01

 95	5.958401768364231e-07
	8.546662315759395e-06
	1.200000000000000e+01
	1.200000000000000e+01
	5.000000000000000e+00
	1.200002475903148e+01
	2.544531656845941e-01
	-6.001203058604325e-03
	-4.319665437538642e-03
	2.475903147816617e-07
	-2.406117208648903e-03
	6.803345624613688e-01

 96	6.058401768364232e-07
	-3.383759690633090e-07
	1.200000000000000e+01
	1.200000000000000e+01
	5.000000000000000e+00
	1.199987742901614e+01
	2.508521583769133e-01
	-6.001213198962953e-03
	-4.319607266211419e-03
	-1.225709838579005e-06
	-2.426397925905285e-03
	6.803927337885920e-01

 97	6.158401768364232e-07
	8.420444081303608e-06
	1.200000000000000e+01
	1.200000000000000e+01
	5.000000000000000e+00
	1.200002932701399e+01
	2.476321018401868e-01
	-6.001266255764490e-03
	-4.319575931737952e-03
	2.932701399485630e-07
	-2.532511528979773e-03
	6.804240682620587e-01

 98	6.258401768364232e-07
	-3.879463106297671e-07
	1.200000000000000e+01
	1.200000000000000e+01
	5.000000000000000e+00
	1.199988297198903e+01
	2.441208969419366e-01
	-6.001273561988337e-03
	-4.319522129009051e-03
	-1.170280109683289e-06
	-2.547123976672434e-03
	6.804778709909594e-01

 99	6.358401768364232e-07
	8.295351889282196e-06
	1.200000000000000e+01
	1.200000000000000e+01
	5.000000000000000e+00
	1.200003328730949e+01
	2.409866782692558e-01
	-6.001323563135235e-03
	-4.319493956549748e-03
	3.328730949439545e-07
	-2.647126270469649e-03
	6.805060434502628e-01

 100	6.458401768364232e-07
	-4.370111777075172e-07
	1.200000000000000e+01
	1.200000000000000e+01
	5.000000000000000e+00
	1.199988794437557e+01
	2.375631728754136e-01
	-6.001328340586736e-03
	-4.319444147317290e-03
	-1.120556244284807e-06
	-2.656681173471480e-03
	6.805558526827210e-01

 101	6.558401768364232e-07
	8.171464410133439e-06
	1.200000000000000e+01
	1.200000000000000e+01
	5.000000000000000e+00
	1.200003673139552e+01
	2.345127371073983e-01
	-6.001375575933972e-03
	-4.319418848976743e-03
	3.673139552409806e-07
	-2.751151867944798e-03
	6.805811510232673e-01

 102	6.658401768364232e-07
	-4.854893586413042e-07
	1.200000000000000e+01
	1.200000000000000e+01
	5.000000000000000e+00
	1.199989242821864e+01
	2.311748726437058e-01
	-6.001378094409236e-03
	-4.319372692834928e-03
	-1.075717813627534e-06
	-2.756188818470003e-03
	6.806273071650832e-01

 103	6.758401768364232e-07
	8.048853047326185e-06
	1.200000000000000e+01
	1.200000000000000e+01
	5.000000000000000e+00
	1.200003973292440e+01
	2.282062078772516e-01
	-6.001422820788316e-03
	-4.319350008316871e-03
	3.973292439843335e-07
	-2.845641576631248e-03
	6.806499916831398e-01

 104	6.858401768364232e-07
	-5.333072913590063e-07
	1.200000000000000e+01
	1.200000000000000e+01
	5.000000000000000e+00
	1.199989649005607e+01
	2.249519681640102e-01